LAMMPS data file via write_data, version 10 Sep 2025, timestep = 10000000, units = metal

507 atoms
1 atom types

0 21.754625 xlo xhi
0 21.754625 ylo yhi
0 21.754625 zlo zhi

Masses

1 28.085

Atoms # atomic

6 1 1.4496038508596178 1.6673185200215674 1.5630658308550311 0 0 0
7 1 2.8341775345938727 0.18402065292367129 3.04882799250529 0 0 0
5 1 2.8355562134493293 3.0779236674771275 0.1833403361023662 0 0 0
3 1 0.08787485555706433 0.17658409116547907 0.18163063532486626 0 0 0
2 1 5.421416801799458 2.749552243336 2.848703016446029 0 0 0
131 1 6.813422472267241 1.6539226814547754 1.3013756181890637 0 0 0
132 1 8.143469620681657 0.12342414894588469 2.536195623305511 0 0 0
130 1 8.328706101251079 2.868697184802664 0.07282516646857667 0 0 0
253 1 10.947474142843072 2.7755506643909005 2.8707102578389447 0 0 0
258 1 12.089951462881485 1.4122267660694032 1.3206859741019978 0 0 0
259 1 13.645382799726333 21.654159816719833 2.620522917366555 0 -1 0
381 1 16.397469686197194 2.756178600573044 2.5163379599915063 0 0 0
386 1 17.91100242579295 1.5727185594648267 1.2902755563443087 0 0 0
383 1 16.55836050947122 21.75088064746256 21.677771776332182 0 -1 -1
385 1 19.121198933392616 3.072455112408943 21.69299367157989 0 0 -1
387 1 18.94808314022367 21.738458131586977 2.707423505588863 0 -1 0
33 1 0.040820713704352765 5.956040795819542 0.4037037435916375 0 0 0
1 1 4.002860206104363 4.423388587277396 1.8652760927249707 0 0 0
159 1 5.112130855578848 5.557298634820133 0.07367923864680834 0 0 0
163 1 8.279030059383857 5.379345129003228 2.6367292725481457 0 0 0
126 1 9.785148345859835 4.16698401898794 1.3388595779646066 0 0 0
252 1 15.013614611455575 4.060947899119912 1.0596191877184962 0 0 0
291 1 13.556117634391402 5.38700688893201 2.6236083759512896 0 0 0
380 1 20.56609518110666 4.320633450921872 1.435084948954725 0 0 0
419 1 18.89082805615749 5.501734014490138 2.6503363295777804 0 0 0
4 1 0.04999637634566767 3.057832043061297 3.161646192779476 0 0 0
31 1 5.330119671212321 7.893325997763108 2.52305197601866 0 0 0
35 1 3.750303611360195 9.121204781440888 0.9850761747326687 0 0 0
162 1 6.798819191738658 6.684214819774932 1.1222139874696908 0 0 0
161 1 8.047865403588595 8.21964730218656 21.60530057854744 0 0 -1
285 1 10.892250720058597 8.166339492759889 2.836841329145123 0 0 0
290 1 12.221751603997621 7.061099875603006 1.2382153694668119 0 0 0
413 1 16.389077213671477 8.207624051423458 2.6443184612218893 0 0 0
418 1 17.743852285638802 6.912602498755709 1.1789018007746797 0 0 0
36 1 21.671049673967037 7.84431920397527 2.239479030626711 -1 0 0
69 1 2.7308424679737398 10.694591088469215 2.500771632639881 0 0 0
68 1 1.5925856978069144 12.243565016239547 1.2946453977726984 0 0 0
195 1 8.064219219711378 10.882562477839326 2.6722523136647878 0 0 0
194 1 6.698965013047476 12.130257790602453 1.367265071078851 0 0 0
157 1 9.402843031095001 9.40446084850368 1.3678512218572336 0 0 0
322 1 12.076531420860393 12.101667879560207 1.421234786511958 0 0 0
319 1 11.022843628699041 10.657623227708552 21.71705121963369 0 0 -1
284 1 15.100354173976337 9.60483831893269 1.4520777108360368 0 0 0
323 1 13.60037423127685 10.93257242020588 2.7055588188809896 0 0 0
450 1 17.710761273273203 12.23188035322944 1.4548463548356474 0 0 0
412 1 20.483402930785154 9.667741852424221 1.220396345974114 0 0 0
451 1 19.123567315952368 10.892651077991365 2.6841415673689557 0 0 0
67 1 2.9293319160059306 13.572831811351985 0.016435689252366832 0 0 0
63 1 0.15361543459380758 13.401176859158971 2.7453856094699094 0 0 0
62 1 4.154247808996952 14.884854743488285 1.4143045783878363 0 0 0
189 1 5.369242434000428 13.536672199735094 2.641891154672163 0 0 0
188 1 9.315855155039632 14.892200405298027 1.3761949377521034 0 0 0
317 1 10.823262099671393 13.557116780973592 2.756752302786128 0 0 0
316 1 14.892243736383083 15.005763064444105 1.3403620314075884 0 0 0
445 1 16.406052022223033 13.679894357406354 2.712025216496328 0 0 0
444 1 20.547883586178326 14.71883181357846 1.5406885719427572 0 0 0
100 1 1.2956828072290936 17.602628433987768 1.4681448938407777 0 0 0
101 1 2.703657914427822 16.176965118360965 2.762358559109037 0 0 0
223 1 5.2561969794386645 16.26034682069528 21.614986015855322 0 0 -1
226 1 6.594163785085152 17.620753167552206 1.1206524261632855 0 0 0
227 1 8.015438771359518 16.263371735779458 2.5262427160735372 0 0 0
354 1 12.186282912040422 17.569424145097447 1.2910057932086285 0 0 0
351 1 10.868004630031509 16.177667999988117 21.744030880926093 0 0 -1
355 1 13.600116768806014 16.41763905936619 2.8424777491224344 0 0 0
482 1 17.769236217405137 17.52470976364242 1.4014238566904675 0 0 0
479 1 16.376052618505206 16.20172422101291 0.07531097340079625 0 0 0
483 1 19.1683516290916 16.165883221109688 2.8223804857117174 0 0 0
95 1 21.675025268553178 19.21739758287747 2.6893585853633803 -1 0 0
128 1 5.406098276027092 0.15112420216449252 0.12475162051152994 0 0 0
94 1 3.972486050974191 20.452172162785942 1.5051080834551618 0 0 0
221 1 5.357826853263231 19.023980122156637 2.682327957192768 0 0 0
220 1 9.610224655625212 20.187973794710366 1.5412156063294045 0 0 0
349 1 10.986253958896274 18.88681302547541 2.8490255544106295 0 0 0
348 1 15.027631516913742 20.338066832430325 1.1446862899371448 0 0 0
353 1 13.600733729178557 18.8906641497593 21.72445940932106 0 0 -1
477 1 16.243491664662443 18.85558198977116 2.549557455882513 0 0 0
476 1 20.434953788180103 20.486985479888155 1.3130332154691415 0 0 0
481 1 19.133143047620447 19.004301022065082 21.71643453550926 0 0 -1
37 1 3.8913407117213183 1.823373123651599 4.513956422050679 0 0 0
138 1 8.158198975479172 2.5989375017530705 5.4562699466396865 0 0 0
127 1 9.524903935637397 1.3063509520536893 4.013503102616588 0 0 0
254 1 14.955137009265178 1.3709203418396396 3.9351075943844673 0 0 0
265 1 13.603025564367423 2.6272736689186122 5.394488858861815 0 0 0
391 1 16.31491606462589 21.718943681772263 5.367841577599743 0 -1 0
382 1 20.33185578407797 1.3001917598929447 3.9846778446933397 0 0 0
393 1 18.97228414742774 2.727591359340929 5.341324914651218 0 0 0
167 1 5.378175880136292 5.104603665895122 5.400934962085965 0 0 0
129 1 6.928180772107281 4.1590282243937615 4.102023411722161 0 0 0
295 1 10.911553110820574 5.39017016176781 5.522041713808191 0 0 0
256 1 12.344825621529274 4.109100676026236 4.154068426868234 0 0 0
384 1 17.550381323320938 4.104665146540566 4.058918739795998 0 0 0
423 1 16.27008990768403 5.437755748188732 5.511553737821413 0 0 0
41 1 21.71206648181498 4.995820375283656 5.028677696367108 -1 0 0
43 1 2.710521655644804 7.869978128593492 5.082676611987441 0 0 0
34 1 1.3259664635158215 9.210847005737236 3.6735545430284238 0 0 0
32 1 4.153857060747095 6.404716911421372 3.704651856446895 0 0 0
169 1 8.012438742244036 8.083703331667278 5.255377316848789 0 0 0
158 1 9.570841628906118 6.65364203877029 4.129373680743316 0 0 0
286 1 14.886940662833275 6.842057196155935 3.9155278759530026 0 0 0
297 1 13.545811017725681 8.004916772045517 5.394755031862817 0 0 0
414 1 20.26438112581873 6.821992649641941 3.92806796015054 0 0 0
425 1 19.043232139019917 7.920772387093499 5.398452473305178 0 0 0
73 1 0.13373206859597125 10.617373022925332 5.248917229804769 0 0 0
64 1 4.038891302895169 12.133574608026024 3.9960962644711877 0 0 0
199 1 5.200796742353725 10.74987313294201 5.179698705569137 0 0 0
160 1 6.683606339423481 9.402828052247772 3.810684688414023 0 0 0
190 1 9.276002309025777 12.246871626989972 4.051594075512585 0 0 0
327 1 10.684361778373379 11.014723906042217 5.440958885742753 0 0 0
288 1 12.183356859098176 9.618904662005315 4.214440473477379 0 0 0
318 1 14.930425012160132 12.421608243228233 4.069097996688305 0 0 0
416 1 17.616704046227095 9.396351736072752 4.08042419774789 0 0 0
455 1 16.236709099300494 11.019591962831756 5.375979415084619 0 0 0
446 1 20.48716090826155 12.11150181152986 4.065399614671775 0 0 0
66 1 1.2718741677575827 14.939856410633507 4.194734954583612 0 0 0
75 1 2.683288772645847 13.523093801393966 5.340556561060147 0 0 0
192 1 6.672649579969714 14.93550588778757 4.1295050389544485 0 0 0
201 1 7.999921684770463 13.600322343682365 5.491333342216182 0 0 0
320 1 12.18021966145552 14.98308462817068 4.130228934765945 0 0 0
329 1 13.575269129118633 13.606552147518547 5.623148950886352 0 0 0
448 1 17.823013685175784 14.887313392363165 4.304693271520371 0 0 0
457 1 19.129085841502917 13.625565903879272 5.592134344509741 0 0 0
96 1 4.048407702393874 17.67377755378068 4.112087229054949 0 0 0
231 1 5.355801250028426 16.337373061313325 5.548620945429234 0 0 0
222 1 9.413649446118585 17.53035814413786 4.149555134035619 0 0 0
359 1 10.938672660708091 16.27234041366255 5.548355455997748 0 0 0
350 1 15.029049825117717 17.696645504848796 4.143769579783889 0 0 0
487 1 16.358627005653734 16.195611649586624 5.545833765423947 0 0 0
105 1 0.16907632149904472 16.499023791461667 5.480189986249227 0 0 0
478 1 20.401777474349732 17.633133384055125 4.0786579989277 0 0 0
10 1 21.724372300144104 0.09112198781216563 5.603917541175425 -1 0 0
98 1 1.3164401261664422 20.429637738678775 4.254625358862411 0 0 0
107 1 2.7993903093065713 19.040650566965073 5.568209087381162 0 0 0
136 1 5.27026103920506 0.0954562210871508 5.402456214786092 0 0 0
224 1 6.650619855992136 20.671238012875207 3.9808133342614993 0 0 0
233 1 8.094188354512967 19.13774385993971 5.40974273264868 0 0 0
263 1 10.958221761775203 0.015508133474053665 5.407368134165211 0 0 0
352 1 12.316491048694667 20.28249664230533 4.1161647144892095 0 0 0
361 1 13.556432779148716 18.92629579432851 5.412593616180465 0 0 0
480 1 17.5483026468915 20.347981864214486 3.9622111565732014 0 0 0
489 1 19.03425436907026 19.053089865904454 5.351354919131462 0 0 0
12 1 1.7467272965174852 1.5936652006891625 6.536655983358438 0 0 0
13 1 21.611197777585843 2.65185663220121 8.057227541065545 -1 0 0
134 1 5.472445999492435 2.657496780588317 8.158265571334582 0 0 0
139 1 6.717056705057296 1.2911401176826438 6.91631049033991 0 0 0
140 1 8.046875695373386 0.03358154679919604 8.173820795739772 0 0 0
261 1 10.985846877359995 2.6615211609868146 8.306216781891205 0 0 0
266 1 12.213066544047537 1.397672414627605 6.794900853762042 0 0 0
267 1 13.55309468535414 21.64490113500358 8.213218670804991 0 -1 0
389 1 16.311787332038172 2.659472150829595 8.102152938661067 0 0 0
394 1 17.642851313509087 1.3234382546009693 6.753978153849699 0 0 0
45 1 2.765454987171741 5.17427951296432 7.7667690426771925 0 0 0
8 1 3.9494678464452777 3.5141093477661562 6.572821874579419 0 0 0
171 1 8.19257434913674 5.398827051900114 8.073891237826295 0 0 0
133 1 9.525298764709449 3.9227977502596882 6.755691085640471 0 0 0
260 1 14.792010912426777 4.091075942155127 6.875640853798189 0 0 0
299 1 13.527030863880888 5.424077772749681 8.32795186951241 0 0 0
388 1 20.401621286083248 3.8248719955840205 6.555908673694226 0 0 0
427 1 19.211761662879315 5.2546496338547835 7.9813818575374285 0 0 0
44 1 1.344489348185297 6.418502657478241 6.36330885666346 0 0 0
165 1 5.34403795484662 8.098006576837623 8.03042728577314 0 0 0
38 1 3.9478966037238488 9.260958873394154 6.635437889795457 0 0 0
170 1 6.776484834621162 6.6751410050953 6.656416971526985 0 0 0
293 1 10.725330093120776 8.153865378508282 8.014133130999838 0 0 0
298 1 12.366355507076726 6.773686880128757 6.871557611181408 0 0 0
166 1 9.522124147549569 6.63801425348303 9.41224855923886 0 0 0
421 1 16.180037981250017 8.16726898863033 8.139414547023115 0 0 0
426 1 17.740050085847443 6.6714720541742905 6.877355126045278 0 0 0
39 1 21.74987889657834 8.067397325127846 7.856523540950087 -1 0 0
76 1 1.2121641241091874 12.153987530960006 6.635130045682115 0 0 0
77 1 2.6795995731735545 10.791421380411238 7.948074929814015 0 0 0
203 1 7.984625143188481 10.887613984664306 8.061344633930387 0 0 0
202 1 6.659180899474604 12.191020261792168 6.641346424627592 0 0 0
164 1 9.333270765800222 9.498102531168024 6.6218952116522205 0 0 0
330 1 12.267210893733449 12.189609375079876 6.865072287505659 0 0 0
292 1 14.882459097685963 9.505693742453406 6.7467480431946445 0 0 0
331 1 13.657241583787698 10.878139488213018 8.185902948291705 0 0 0
458 1 17.502869519880818 12.24382957778769 6.8506888038817655 0 0 0
420 1 20.399790999652037 9.37684532063611 6.447962436406467 0 0 0
459 1 19.03318896515103 10.790646298586477 7.870581273568277 0 0 0
70 1 3.9229574810605645 14.925600480112328 6.76527913999807 0 0 0
197 1 5.321457173179221 13.607023806501907 8.078529540345977 0 0 0
196 1 9.526968081925308 14.820191899076336 6.83333377276832 0 0 0
325 1 10.840681641102682 13.608293333450483 8.188052418843217 0 0 0
328 1 12.220287274318574 15.018874641897684 9.554136652728786 0 0 0
324 1 14.88733477125399 14.97125352101211 6.971093737301226 0 0 0
453 1 16.39598904124233 13.7526534305727 8.319323854917368 0 0 0
71 1 21.658390379191637 13.461338869587768 8.076795837249353 -1 0 0
452 1 20.713898949820997 15.08219804303721 6.853738905486528 0 0 0
108 1 1.4191632827142056 17.72831620432265 6.870264208343537 0 0 0
109 1 2.73213976951918 16.422514938585266 8.325497518838498 0 0 0
234 1 6.7819294964246195 17.885425008606095 6.89701339415621 0 0 0
235 1 8.200125653883177 16.34544367806133 8.050780666659353 0 0 0
362 1 12.319786540175437 17.649121346874896 7.023003064525723 0 0 0
363 1 13.590573127777994 16.27658855263366 8.308587179131985 0 0 0
490 1 17.753807511999 17.470223591946823 6.800318299171125 0 0 0
491 1 19.122120151677407 16.307782910284605 8.075706929821417 0 0 0
14 1 2.7003136346658354 0.18934395270083115 7.9856099357740105 0 0 0
103 1 0.043398637101640665 19.040936791244246 8.1493321125938 0 0 0
102 1 4.168512637917936 20.498020749666125 6.740873414067944 0 0 0
229 1 5.431505192840488 19.09251934458683 8.317707520086042 0 0 0
228 1 9.560783019136805 20.433147862251417 6.7302086429937455 0 0 0
357 1 10.83876757039153 19.05012481889048 8.204815803259793 0 0 0
356 1 14.817099428919443 20.424046503164327 6.7249966145736595 0 0 0
485 1 16.350985457090765 19.0626151869076 8.084457836155782 0 0 0
395 1 19.01103320774408 21.703331217498246 8.122824361300884 0 -1 0
484 1 20.42980717185127 20.37916033083648 6.810647832472537 0 0 0
20 1 2.619849218899321 2.7055640681005526 10.659128584620241 0 0 0
21 1 1.253737944650068 1.3549999234403534 12.15256189164182 0 0 0
9 1 3.999879838776558 1.2910116471759945 9.500846161356137 0 0 0
146 1 8.1610677569989 2.7026472889320794 10.797770469829333 0 0 0
147 1 6.906640495089507 1.3842640482549622 12.392389446213363 0 0 0
135 1 9.55725041512372 1.3197210531378403 9.539619628837091 0 0 0
271 1 10.924108353601676 21.71349799819509 11.014540697750288 0 -1 0
262 1 15.009405576939171 1.3128771765165201 9.594660167824443 0 0 0
273 1 13.620381235857742 2.6951994180356253 10.961160961332299 0 0 0
402 1 17.755475020489627 1.2369249554859811 12.324144531872244 0 0 0
399 1 16.377776952621943 21.659930782093955 10.983614633694717 0 -1 0
390 1 20.279558061807034 1.2490607334622967 9.482629821446615 0 0 0
401 1 19.078244364803023 2.8234988446040234 10.957279905370253 0 0 0
11 1 1.3603193822490118 4.073335264474319 9.364139919347405 0 0 0
49 1 0.1431457767009539 5.354495487792587 10.759211468632795 0 0 0
175 1 5.3564695938138485 5.4070457096819835 10.927939900058238 0 0 0
15 1 3.96319206595641 3.8650082686052243 12.207337467753897 0 0 0
137 1 6.720365052000949 4.166342708123981 9.505701107853875 0 0 0
264 1 12.323638343821678 3.9431797267202118 9.582330644134606 0 0 0
303 1 10.803972953657462 5.45195792403552 10.80206097018728 0 0 0
141 1 9.315510717304631 4.082606078981405 12.222599680292898 0 0 0
268 1 15.01260664096478 4.092135797065567 12.224118526812264 0 0 0
392 1 17.571231536086326 4.038092104646094 9.505207185397213 0 0 0
431 1 16.373768927271968 5.557302530520597 10.880651971490648 0 0 0
396 1 20.45578863468131 4.328070134260684 12.167811173443665 0 0 0
51 1 2.773886710102001 8.079632409747797 10.880492036221856 0 0 0
52 1 1.3911130084282692 6.739476509834066 12.1572348786751 0 0 0
40 1 4.111498294088433 6.600212790764422 9.407100986701613 0 0 0
177 1 8.116429821581946 7.962854855889762 10.804469192545385 0 0 0
178 1 6.6380276335089 6.890115180274326 12.149873657631984 0 0 0
168 1 6.7443548798465605 9.434615665348833 9.452752727244109 0 0 0
306 1 12.352101719268646 6.8364344135403625 12.238421507290898 0 0 0
294 1 14.973862231003187 6.899434936147046 9.476952933742016 0 0 0
305 1 13.49114312302204 8.2000292273842 10.79682943299161 0 0 0
434 1 17.77050739215736 6.914848477210863 12.16201106787321 0 0 0
422 1 20.542092384045223 6.668907732388292 9.380552829200129 0 0 0
433 1 19.097000776669184 8.11360728064184 10.675368556410566 0 0 0
42 1 1.3667313943120336 9.301036269120042 9.265629823017356 0 0 0
84 1 1.289421469349878 12.18812365246157 12.237410321204882 0 0 0
46 1 4.011623312026614 9.463975701795688 12.227570600371951 0 0 0
72 1 4.007621081513981 12.099630611249747 9.455247820730214 0 0 0
207 1 5.335247376527449 10.825736448430465 10.84153246704729 0 0 0
210 1 6.608582584025088 12.154171861936696 12.086991214430784 0 0 0
198 1 9.348485672547355 12.24157200439314 9.512217238610903 0 0 0
296 1 12.093821183627528 9.584006866917074 9.468919662763579 0 0 0
172 1 9.551885282987664 9.450249688507295 12.143888329533215 0 0 0
335 1 10.731291977012262 10.943383898934869 10.841985848337002 0 0 0
338 1 12.111105802749082 12.344601157093775 12.265326999337127 0 0 0
326 1 14.935284894992865 12.270142796781604 9.586930542064977 0 0 0
300 1 14.87549013625415 9.467086010203575 12.136159285152386 0 0 0
424 1 17.639273685204003 9.501253939748638 9.406572684850865 0 0 0
463 1 16.359124704529222 10.860166408789672 10.85565612874511 0 0 0
466 1 17.62385672256758 12.182652493796045 12.326364052196862 0 0 0
454 1 20.29776919384454 12.206100593641512 9.345381972806253 0 0 0
81 1 0.05649117756095734 10.863948394652054 10.622911207720751 0 0 0
428 1 20.419232541268585 9.555972657231514 12.122192930889474 0 0 0
74 1 1.3490422118674907 14.81616040336792 9.304180202706329 0 0 0
83 1 2.616756229733878 13.468846641460157 10.80911012395266 0 0 0
78 1 4.070019739170584 14.942831786574322 12.167036874548343 0 0 0
200 1 6.767028663838232 14.891082004743815 9.321169811191137 0 0 0
209 1 7.974871592397562 13.602572931140083 10.86203032717474 0 0 0
204 1 9.383924518776801 15.020812614332547 12.272113168488344 0 0 0
337 1 13.70481495008523 13.665030013869215 11.046865570268205 0 0 0
332 1 14.958268771248624 14.992519591001653 12.43938621752744 0 0 0
456 1 17.797690142429847 14.961458973514505 9.558590855792604 0 0 0
465 1 19.030291735108424 13.443249022302972 10.925236242281446 0 0 0
460 1 20.464554240278854 14.984197718657773 12.21268488443341 0 0 0
116 1 1.3912515698910086 17.81650105611576 12.035872543757039 0 0 0
113 1 0.1541702426424959 16.313366963334264 10.732208984840183 0 0 0
104 1 4.089555043413269 17.812834030529395 9.654131961529151 0 0 0
239 1 5.468926436500216 16.29070694989581 10.823645881928659 0 0 0
242 1 6.582623936171069 17.756746733998536 12.20080561288103 0 0 0
230 1 9.501209831454405 17.831851632802692 9.591933591706999 0 0 0
367 1 10.815433542029147 16.475241211395765 10.959792431741345 0 0 0
370 1 12.343337246734084 17.705603625895716 12.305251625429362 0 0 0
358 1 15.08587690571543 17.68093552291385 9.490517774878496 0 0 0
495 1 16.37313863946922 16.163836827854727 11.01372483757426 0 0 0
498 1 17.625232224669574 17.519893127701003 12.324145767455708 0 0 0
486 1 20.44610978523513 17.64211988427611 9.536430549265846 0 0 0
18 1 21.620636518443483 21.638907355537963 10.970577131387076 -1 -1 0
106 1 1.2801952754962778 20.42176145860059 9.449181911264514 0 0 0
115 1 2.6360508847429 19.27409619787465 10.898323786451725 0 0 0
144 1 5.372642427277643 0.14586624615348143 11.072003713136919 0 0 0
110 1 4.122052354335307 20.353846456124124 12.265125466051291 0 0 0
232 1 6.717154237155472 20.53362205417304 9.649310332268948 0 0 0
241 1 7.984970474682461 19.087418325094465 10.92276235924475 0 0 0
236 1 9.501347015308994 20.381977864552983 12.33516964444409 0 0 0
360 1 12.26767740263152 20.42532321830764 9.578977403125949 0 0 0
369 1 13.692675087069482 19.03791624074467 10.755816270407154 0 0 0
364 1 14.906695877658526 20.261491246236815 12.298102074586023 0 0 0
488 1 17.71925772544995 20.372288319314688 9.473252600538832 0 0 0
497 1 19.033345915624405 18.987698668194433 11.023041573958729 0 0 0
492 1 20.380099255547535 20.31777048600343 12.190813157032466 0 0 0
22 1 2.755635380238952 21.698240654727794 13.583903055281658 0 -1 0
16 1 21.695870940123577 2.8890127288153122 13.525191691251068 -1 0 0
17 1 4.0409591597519885 1.3348060251456095 15.005213485560418 0 0 0
142 1 5.336316363477437 2.6927031431693607 13.679635126150815 0 0 0
148 1 8.225432139643507 0.0821946771328424 13.681246476182995 0 0 0
274 1 12.3938983790675 1.304504133952049 12.308727610207232 0 0 0
143 1 9.839891974333678 1.4900459871948972 14.930514933066602 0 0 0
269 1 10.951317837073397 2.7864547553530503 13.538561764684722 0 0 0
270 1 14.970084687242318 1.3254148048943046 14.77674965814685 0 0 0
275 1 13.682430824473595 21.715529047326196 13.496240141165764 0 -1 0
397 1 16.301609000076265 2.67070579386378 13.476001477341425 0 0 0
398 1 20.33846377746971 1.427017875116254 14.927808915495968 0 0 0
403 1 19.063601535672888 21.645984583589932 13.694486725195592 0 -1 0
19 1 1.3660473766194048 4.2326123176953105 15.064559040057828 0 0 0
53 1 2.799948926374491 5.444524438424914 13.57914636103802 0 0 0
145 1 6.77639524790874 4.03278495934006 14.94416392812501 0 0 0
179 1 8.110133110975188 5.555234462604159 13.566468190921558 0 0 0
272 1 12.316321447846843 4.040796171342948 14.737984368400058 0 0 0
307 1 13.676737369747537 5.4228038816277 13.48132873022103 0 0 0
400 1 17.751319581801397 4.031798694356084 14.82014281075434 0 0 0
435 1 19.015363264190775 5.484041589755442 13.588600807872252 0 0 0
48 1 4.218744295804542 6.685262740897975 14.970174415946657 0 0 0
173 1 5.459102674537611 8.15822096619899 13.625436302178649 0 0 0
174 1 9.49656342955646 6.922269174363003 14.808319311638146 0 0 0
301 1 10.974797121396538 8.215215778597063 13.559311141734945 0 0 0
302 1 15.018406254987514 6.902214441959557 14.848641953831043 0 0 0
429 1 16.250493301749145 8.30467847889401 13.62020259705704 0 0 0
47 1 0.12688231365538982 8.063748088660478 13.547066172211355 0 0 0
430 1 20.381948682744728 6.792694848888993 14.908331802751945 0 0 0
50 1 1.3347987574237392 9.332147400899554 15.006901745213405 0 0 0
85 1 2.6612653829754827 10.66018853817821 13.677063938435149 0 0 0
80 1 4.1795702882484775 12.083117063408158 14.826319093124726 0 0 0
176 1 6.879713355379307 9.459292195057394 14.962367815140754 0 0 0
211 1 8.222321290592395 10.860234343040686 13.39171902166869 0 0 0
206 1 9.35683706089989 12.265942265596296 15.01843018211204 0 0 0
304 1 12.320639931509904 9.607993094217266 14.948174084798351 0 0 0
339 1 13.57607147999907 10.973985327727185 13.59727318841509 0 0 0
334 1 14.88279254870422 12.279703665332814 14.933178576430507 0 0 0
432 1 17.73269373861858 9.518735205128522 14.94766508129365 0 0 0
467 1 19.00248133197129 10.712186385694949 13.580939239066687 0 0 0
462 1 20.233300212881794 12.11734117652481 14.977152478596542 0 0 0
82 1 1.3866373768094564 14.782928957566618 14.769749583177434 0 0 0
205 1 5.363740444190382 13.626501450725652 13.51779131855359 0 0 0
208 1 6.6083744473248025 15.039827144933676 14.992930166149714 0 0 0
333 1 10.68159639201855 13.667536254888022 13.632032356536284 0 0 0
336 1 12.056984234596108 14.925531850823695 15.194848446006844 0 0 0
461 1 16.417483273613204 13.566809315309804 13.861591182123894 0 0 0
464 1 17.890836799381336 15.10298642492101 15.078547823600477 0 0 0
79 1 21.61431735082264 13.500839950699882 13.60989851468639 -1 0 0
117 1 2.5861534893310303 16.53995223453904 13.600857999236048 0 0 0
112 1 3.9639760855296755 17.896469443089874 14.905224489913662 0 0 0
243 1 8.0034859251071 16.483400477077524 13.541779768533964 0 0 0
238 1 9.322176533805004 17.712813696581183 14.96459563162751 0 0 0
366 1 14.933799430677535 17.7875902479604 15.076920555330625 0 0 0
371 1 13.449576590063154 16.343056115960326 13.917197907902919 0 0 0
494 1 20.552359059777363 17.62334024885173 14.89075368129651 0 0 0
499 1 19.255156558463465 16.293937659013977 13.597115461810814 0 0 0
114 1 1.2922060492545042 20.349037264836113 14.977541882913995 0 0 0
111 1 21.751561815564727 19.20018279058158 13.497122038112332 -1 0 0
237 1 5.425546199379826 19.237064235977876 13.823355305292138 0 0 0
240 1 6.804362732449825 20.5168606291011 15.077275176518707 0 0 0
365 1 10.827507713154748 19.010514099185766 13.715753575877136 0 0 0
368 1 12.32699848844438 20.281404979554267 14.916740332659387 0 0 0
493 1 16.38019376596092 18.975541757278627 13.74473141316011 0 0 0
496 1 17.810552055524926 20.37500909374328 15.269598913876408 0 0 0
28 1 2.68585205298832 2.907539339978502 16.31545402933331 0 0 0
29 1 1.198411282546174 1.5005840566586635 17.805594307711164 0 0 0
154 1 8.273747029237645 2.7046897004241597 16.169646436389296 0 0 0
155 1 6.889016117588773 1.4398651694638038 17.6393710264359 0 0 0
282 1 12.378054418868526 1.3545165855466064 17.557361645502763 0 0 0
279 1 11.027111348398536 21.748821462645815 16.266458827757468 0 -1 0
281 1 13.615972896001065 2.574495714514946 16.07489267789877 0 0 0
410 1 17.832643422079684 1.350060055531363 17.64746428617356 0 0 0
407 1 16.33768946818694 0.1472291564231131 16.27994097264372 0 0 0
409 1 19.011649654774985 2.894371290883364 16.347923379726996 0 0 0
57 1 0.049540107204796506 5.63064546456574 16.30158537520238 0 0 0
23 1 3.9737941639010286 4.238648980030177 17.789066418514285 0 0 0
183 1 5.563998110654895 5.467671207280305 16.43698499899685 0 0 0
149 1 9.518799258444465 3.9800156075321125 17.568116825721518 0 0 0
311 1 10.910570376942145 5.345805667769673 16.130857517399164 0 0 0
276 1 15.017117833413318 3.915527475990279 17.48810521636755 0 0 0
439 1 16.239160719697274 5.300129476601651 16.177785888221994 0 0 0
404 1 20.333875073373736 4.261437427323848 17.829363284495294 0 0 0
59 1 2.816502806934227 8.109303415500497 16.216552698871915 0 0 0
60 1 1.277345034525824 7.014521628103111 17.554157010805067 0 0 0
185 1 8.139891965860508 8.209090512471018 16.29419333125047 0 0 0
186 1 6.841306033436944 6.911931449226107 17.788648510617843 0 0 0
314 1 12.31073271345537 6.778768441463573 17.63312001985003 0 0 0
313 1 13.748641869369886 8.13359105306633 16.283535598435478 0 0 0
442 1 17.495438588686742 6.757445403083056 17.568460598407025 0 0 0
441 1 19.0211032629358 8.086034749241875 16.371604107400398 0 0 0
92 1 1.3863875439826923 12.321483283657495 17.588602962333507 0 0 0
54 1 4.163464875119499 9.63378795205541 17.515129377410673 0 0 0
215 1 5.716861824306082 10.97210036983771 16.173527683084295 0 0 0
218 1 6.904924952527064 12.1888633973818 17.71799858083734 0 0 0
180 1 9.549129705280754 9.47992176508012 17.600608744462612 0 0 0
343 1 10.899732077661824 10.938991768353416 16.2473641986315 0 0 0
346 1 12.163959832590056 12.269917249041939 17.60387659502925 0 0 0
308 1 14.933682143696604 9.637295186261058 17.631905791554654 0 0 0
471 1 16.379986822658008 10.94464957355572 16.43913052943191 0 0 0
474 1 17.823965415920544 12.169171303899674 17.72074322729329 0 0 0
89 1 21.74715856596115 10.86809093517353 16.29025396850838 -1 0 0
436 1 20.34884604413814 9.59052026083973 17.63575485546563 0 0 0
91 1 2.7594451428554136 13.567199504494093 16.111570220098233 0 0 0
86 1 3.983194320344821 14.966341238715023 17.621813218471477 0 0 0
217 1 8.064688472730523 13.599458153839883 16.23115853406227 0 0 0
212 1 9.166479357657913 15.122078865348383 17.571102760715526 0 0 0
340 1 14.91792386128673 15.011673222741688 17.678749875326083 0 0 0
345 1 13.55050360066988 13.552980956951737 16.47078646196629 0 0 0
468 1 20.54242920932832 14.860649401875008 17.795989178811435 0 0 0
473 1 19.08606356050605 13.641267346072489 16.40012511989566 0 0 0
124 1 1.469964633478237 17.676246272766956 17.72289319383927 0 0 0
247 1 5.283298509363837 16.54533207052627 16.298962254465387 0 0 0
250 1 6.529578078558396 17.86078658827401 17.736937541764195 0 0 0
375 1 10.771336143179603 16.435269712644065 16.38551743035924 0 0 0
378 1 12.240422267755308 17.778979234312775 17.892399596962207 0 0 0
503 1 16.27517355320226 16.30794506439432 16.36838963478059 0 0 0
506 1 17.831887257122144 17.70343299495025 17.69953862821021 0 0 0
121 1 0.10420111857384029 16.111450518836108 16.186848399814366 0 0 0
26 1 0.15991774511359674 0.2522063937720809 16.20279322871353 0 0 0
123 1 2.6688712915685806 19.209633562993925 16.380688433574292 0 0 0
152 1 5.419076196951767 0.1674213016504673 16.455313092002804 0 0 0
118 1 3.9057046726496565 20.636517889079645 17.7688754886933 0 0 0
249 1 8.170426722730841 19.062478534134126 16.379437498458724 0 0 0
244 1 9.547590359214894 20.62746111279371 17.762246387039323 0 0 0
372 1 15.243097980732772 20.496011987140193 17.863512551566014 0 0 0
377 1 13.651924957124516 19.118420926134615 16.563034275127084 0 0 0
500 1 20.63057947203705 20.400549901990498 17.586256597585916 0 0 0
505 1 19.1791231484276 18.89232158191017 16.460770268744586 0 0 0
30 1 2.543697819953116 0.20635375590210123 19.148368697824093 0 0 0
24 1 0.01236681234404588 2.9531526623192166 19.252226179147925 0 0 0
25 1 4.082296483807476 1.5602014110454916 20.54860015614007 0 0 0
150 1 5.414404302388272 2.7508190057714677 19.07754012296954 0 0 0
156 1 8.063095126153275 0.2411400371478517 19.08156341467325 0 0 0
255 1 10.775035764116986 0.045907604602212194 0.11008760950859298 0 0 0
151 1 9.572684440498232 1.462900086594574 20.497600853306142 0 0 0
277 1 10.87535260184654 2.753378195452556 18.847960697134983 0 0 0