LAMMPS (10 Sep 2025)
OMP_NUM_THREADS environment is not set. Defaulting to 1 thread.
  using 1 OpenMP thread(s) per MPI task
Loaded 1 plugins from C:\Users\lmike\AppData\Local\LAMMPS 64-bit 10Sep2025 with GUI\plugins
# LAMMPS input generated from LammpsInputFile with pymatgen v2025.10.7

# STYLES
units metal
atom_style atomic

# SET UP CALCULATION
read_data starting_config.dat
Reading data file ...
  orthogonal box = (0 0 0) to (21.754625 21.754625 21.754625)
  1 by 1 by 1 MPI processor grid
  reading atoms ...
  507 atoms
  read_data CPU = 0.003 seconds
pair_style sw
pair_coeff * * Si.sw Si
Reading sw potential file Si.sw with DATE: 2007-06-11
velocity all create 700 5370138

# CALCULATION PARAMETERS
fix f1 all nvt temp 700.0 700.0 $(100.0*dt)
fix f1 all nvt temp 700.0 700.0 0.10000000000000000555
thermo 100000
thermo_style custom step temp press spcpu cpuremain

# RUN CALC AND WRITE OUTPUTS
dump d1 all custom 100 state_dump id type x y z vx vy vz
run 10000000
Neighbor list info ...
  update: every = 1 steps, delay = 0 steps, check = yes
  max neighbors/atom: 2000, page size: 100000
  master list distance cutoff = 5.77118
  ghost atom cutoff = 5.77118
  binsize = 2.88559, bins = 8 8 8
  1 neighbor lists, perpetual/occasional/extra = 1 0 0
  (1) pair sw, perpetual
      attributes: full, newton on
      pair build: full/bin/atomonly
      stencil: full/bin/3d
      bin: standard
Per MPI rank memory allocation (min/avg/max) = 3.117 | 3.117 | 3.117 Mbytes
   Step          Temp          Press          S/CPU         CPULeft    
         0   700            545.84453      0              0            
    100000   662.85389     -7943.9768      463.07417      21378.865    
    200000   754.30612     -6912.2653      451.22565      21440.77     
    300000   719.2586      -7727.9403      477.99395      20912.372    
    400000   690.76724     -7072.2599      569.99734      19733.132    
    500000   702.95664     -6701.5753      564.55116      18987.568    
    600000   713.03184     -7586.3464      589.4318       18314.343    
    700000   728.35754     -7502.2728      593.98354      17767.722    
    800000   735.0553      -6851.5945      584.88124      17345.799    
    900000   717.76573     -7030.9353      572.35584      17017.473    
   1000000   737.47442     -7758.778       585.13361      16685.531    
   1100000   666.90436     -7698.3565      573.27864      16411.464    
   1200000   713.16957     -6682.818       580.57742      16137.92     
   1300000   686.86483     -7576.2209      582.20876      15876.732    
   1400000   657.32788     -8239.2924      572.74806      15645.747    
   1500000   680.8346      -7408.0082      583.40233      15404.212    
   1600000   698.18981     -7438.9112      578.81537      15178.574    
   1700000   659.71172     -7058.0829      588.74103      14944.936    
   1800000   704.07881     -7455.3854      574.30157      14737.84     
   1900000   665.54147     -7475.0013      573.65297      14535.053    
   2000000   676.06982     -7936.9183      578.45298      14329.327    
   2100000   747.9042      -7246.0136      572.52911      14133.459    
   2200000   721.86062     -7423.6155      581.03915      13930.449    
   2300000   681.89846     -7710.4169      569.63328      13741.662    
   2400000   684.4348      -7408.5843      582.02669      13542.142    
   2500000   654.26275     -7849.5655      574.67428      13351.432    
   2600000   692.14148     -6936.9013      588.61346      13150.279    
   2700000   685.23652     -7775.6123      587.20049      12952.546    
   2800000   684.01251     -7950.4008      589.51104      12755.057    
   2900000   712.96202     -7077.6611      590.84481      12558.551    
   3000000   680.37702     -7722.8576      583.5509       12368.799    
   3100000   692.93784     -7886.5927      597.56329      12171.289    
   3200000   705.24937     -6966.7134      582.62426      11984.782    
   3300000   702.97395     -7520.1193      578.36945      11801.74     
   3400000   692.28904     -7932.5945      574.7258       11621.422    
   3500000   730.41453     -6522.5685      588.98077      11433.645    
   3600000   694.74743     -7024.637       577.92306      11252.642    
   3700000   709.62527     -7495.3138      583.48289      11069.263    
   3800000   720.4476      -6941.1421      578.84927      10888.754    
   3900000   748.24111     -7077.5937      575.78966      10710.078    
   4000000   623.60963     -7962.5922      589.23404      10525.708    
   4100000   708.12993     -7778.2591      568.0136       10351.177    
   4200000   707.34481     -7595.3257      569.80196      10175.811    
   4300000   687.23557     -8210.8211      593.45637      9991.1655    
   4400000   699.19685     -7687.0304      584.91523      9810.3854    
   4500000   694.54897     -7587.3611      586.54483      9629.461     
   4600000   709.85299     -6854.3563      585.08725      9449.4889    
   4700000   735.22062     -6823.2557      585.97146      9269.6113    
   4800000   705.76536     -5579.1277      575.94488      9093.3365    
   4900000   692.31377     -5665.5513      567.2271       8919.9472    
   5000000   734.8011      -5988.2573      585.39228      8740.971     
   5100000   726.45316     -5562.6661      576.21287      8564.929     
   5200000   703.00459     -6073.914       581.84598      8387.4321    
   5300000   716.14056     -5498.2962      578.66011      8210.9867    
   5400000   731.26871     -6027.4573      580.65732      8034.1695    
   5500000   684.34887     -5625.0093      581.93601      7857.2099    
   5600000   685.5781      -5608.2433      581.91792      7680.4374    
   5700000   696.64829     -5742.4673      584.70212      7503.2204    
   5800000   697.57637     -5596.3505      581.2197       7326.9589    
   5900000   692.53372     -6062.8011      567.95         7153.6336    
   6000000   708.99825     -6069.1316      577.36728      6978.3021    
   6100000   711.35213     -5633.1196      570.6525       6804.3435    
   6200000   692.61047     -5351.1592      574.49428      6629.6254    
   6300000   672.35636     -6573.444       600.27874      6450.5369    
   6400000   629.38182     -6748.8843      575.44654      6275.8826    
   6500000   675.02691     -5627.9319      585.17101      6099.7003    
   6600000   723.24925     -5573.2179      578.6435       5924.6715    
   6700000   682.38166     -6284.5139      572.12177      5750.6789    
   6800000   710.01114     -5980.2505      568.13366      5577.2403    
   6900000   739.18553     -5110.5938      584.63124      5401.4956    
   7000000   707.44909     -5618.9381      585.59406      5225.7645    
   7100000   695.14046     -5520.8551      566.71475      5052.4969    
   7200000   681.76812     -5726.2264      593.1811       4876.0789    
   7300000   697.52993     -6451.8813      587.80694      4700.4457    
   7400000   693.41254     -5322.7673      574.03798      4526.3952    
   7500000   675.75656     -5783.6392      572.25014      4352.5219    
   7600000   665.96669     -6233.1832      583.68703      4177.5444    
   7700000   710.40172     -5388.3406      573.0473       4003.6118    
   7800000   696.75505     -5993.8722      586.40464      3828.5435    
   7900000   687.6733      -5334.0913      585.0677       3653.6936    
   8000000   701.13908     -5549.2379      543.23554      3482.2324    
   8100000   715.19827     -5714.4869      574.33743      3308.1212    
   8200000   668.90753     -5578.4314      595.32072      3132.6629    
   8300000   722.953       -5625.3097      579.87841      2958.301     
   8400000   683.34142     -5699.9912      587.56205      2783.5552    
   8500000   744.37751     -5484.6865      591.6814       2608.7073    
   8600000   670.40185     -5589.4021      587.50077      2434.1909    
   8700000   704.78159     -6321.0126      577.73139      2260.2036    
   8800000   715.07531     -5916.9584      568.38903      2086.6246    
   8900000   700.19752     -5598.5402      599.05936      1911.8794    
   9000000   671.90454     -5462.4982      585.87839      1737.7251    
   9100000   682.44493     -5591.0396      563.60751      1564.3142    
   9200000   747.09165     -5782.4355      594.32834      1390.0184    
   9300000   666.2029      -5973.7144      591.66481      1215.9095    
   9400000   666.60494     -5997.3365      592.30877      1041.8973    
   9500000   720.84754     -4853.1894      583.53368      868.12772    
   9600000   746.51897     -5417.3017      592.56542      694.29935    
   9700000   717.41466     -5490.3231      592.48593      520.57623    
   9800000   698.59818     -6199.933       592.99379      346.95103    
   9900000   715.14427     -5795.9216      598.50781      173.41094    
  10000000   682.17918     -5485.8257      567.3592       0            
Loop time of 17343.9 on 1 procs for 10000000 steps with 507 atoms

Performance: 49.816 ns/day, 0.482 hours/ns, 576.570 timesteps/s, 292.321 katom-step/s
99.6% CPU use with 1 MPI tasks x 1 OpenMP threads

MPI task timing breakdown:
Section |  min time  |  avg time  |  max time  |%varavg| %total
---------------------------------------------------------------
Pair    | 17064      | 17064      | 17064      |   0.0 | 98.38
Neigh   | 0.15302    | 0.15302    | 0.15302    |   0.0 |  0.00
Comm    | 44.269     | 44.269     | 44.269     |   0.0 |  0.26
Output  | 150.05     | 150.05     | 150.05     |   0.0 |  0.87
Modify  | 68.526     | 68.526     | 68.526     |   0.0 |  0.40
Other   |            | 17.35      |            |       |  0.10

Nlocal:            507 ave         507 max         507 min
Histogram: 1 0 0 0 0 0 0 0 0 0
Nghost:           1420 ave        1420 max        1420 min
Histogram: 1 0 0 0 0 0 0 0 0 0
Neighs:              0 ave           0 max           0 min
Histogram: 1 0 0 0 0 0 0 0 0 0
FullNghs:        17744 ave       17744 max       17744 min
Histogram: 1 0 0 0 0 0 0 0 0 0

Total # of neighbors = 17744
Ave neighs/atom = 34.998028
Neighbor list builds = 195
Dangerous builds = 0
write_data FINAL_STRUCTURE
System init for write_data ...
Total wall time: 4:49:03
