LAMMPS data file via write_data, version 10 Sep 2025, timestep = 10000000, units = metal

513 atoms
1 atom types

0 21.77481 xlo xhi
0 21.77481 ylo yhi
0 21.77481 zlo zhi

Masses

1 28.085

Atoms # atomic

513 1 1.4082692373472354 1.1891678511584487 1.4415533485598486 0 0 0
6 1 2.7581046002413316 2.583394830041176 0.11988052098578092 0 0 0
2 1 0.08336970230759633 2.7668424327531427 2.648053244300384 0 0 0
130 1 5.676351885016003 2.579425631636524 2.7033223046648347 0 0 0
135 1 7.170674394649404 1.2517253898184049 1.5403345394505126 0 0 0
136 1 8.406132744832325 0.10798289472051792 3.028601025149306 0 0 0
258 1 11.140653288126076 2.6437007831224926 2.6679598203852075 0 0 0
263 1 12.650486149194831 1.4006854055549398 1.2682659138829584 0 0 0
264 1 13.870585915584135 21.75712959143426 2.78267305210876 0 -1 0
262 1 13.835294476823211 2.6903595986991395 21.702893388441865 0 0 -1
391 1 17.783341093565337 1.21388965539111 1.4436125228162746 0 0 0
386 1 16.52122696155558 2.654128324172706 2.8198992021299514 0 0 0
388 1 16.457299998857163 0.06253260916355571 21.73516956688371 0 0 -1
390 1 19.04923871227595 2.7562837694373266 0.06500275878945831 0 0 0
392 1 19.190575571848772 21.482528594500867 2.5803855443185393 0 -1 0
40 1 2.6932818448523843 5.28034900254898 2.5688650165848035 0 0 0
1 1 4.2660369868550605 3.8757487371084416 1.2793734794614107 0 0 0
168 1 8.253704726081763 5.563694662026696 2.7612626008977235 0 0 0
129 1 9.53653175615998 3.958846259572409 1.374017024540623 0 0 0
292 1 10.824034293586353 5.185993897311935 21.626004254012056 0 0 -1
257 1 15.125057109955089 3.876249494290676 1.5424950699965463 0 0 0
259 1 13.88592692661181 5.338618039920195 2.7769863635053964 0 0 0
420 1 16.07642621611576 5.510390815006992 0.13559464495103782 0 0 0
385 1 20.558515119107213 4.07775350845664 1.2906106578872245 0 0 0
424 1 19.020124538679198 5.512492274154001 2.602982074278924 0 0 0
39 1 1.250992332421642 6.779523480727831 1.4028574552596549 0 0 0
34 1 0.04053061620977161 8.23041755360359 2.630392788530609 0 0 0
162 1 5.502227679049465 8.207166005461627 2.8602680491923596 0 0 0
167 1 6.789477916596424 6.802141896797201 1.4165295993690987 0 0 0
166 1 7.979398540507305 8.208149445906011 0.10294644651024143 0 0 0
295 1 12.29461798370928 6.539699191119188 1.4469407445408333 0 0 0
290 1 10.985430193467435 8.37761971509255 2.4005173458987104 0 0 0
418 1 16.440142129627024 8.55071488270114 2.7544138509920373 0 0 0
423 1 17.407968103977932 6.897431740469737 1.465092638968618 0 0 0
422 1 18.979176516814668 8.090024387898644 0.01774249122811966 0 0 0
72 1 2.8779314234735036 10.958367201477776 2.6517852509105264 0 0 0
71 1 1.563713213078719 12.305858684781455 1.3890111277178205 0 0 0
33 1 4.071925223024414 9.399896703248816 1.4103487363884284 0 0 0
200 1 8.021870138803646 10.841215964347606 2.8095947479639443 0 0 0
199 1 6.804981554156809 12.34570390700788 1.3326013062469861 0 0 0
161 1 9.358472758693914 9.513982452065543 1.3854755624362702 0 0 0
327 1 12.252867480642461 12.283833199542551 1.4126967475176153 0 0 0
324 1 10.792641480644157 10.88763519880351 0.062216749643173586 0 0 0
289 1 14.929449370092204 9.893464927089685 1.4416498698728375 0 0 0
328 1 13.618955397417388 11.027119554791586 2.901154559433928 0 0 0
455 1 17.97171957636736 12.499852567225853 1.3572610906398768 0 0 0
452 1 16.496241595449316 11.163037818539859 0.1320939474123115 0 0 0
417 1 20.42462277431899 9.42664759334265 1.2904563905469242 0 0 0
456 1 19.112440676937545 10.904699397895811 2.5976271078223387 0 0 0
68 1 0.0643063196101051 11.028833310710718 0.22854404232977643 0 0 0
70 1 2.9167900155210487 13.520390582448188 21.697697047332237 0 0 -1
66 1 21.735708690855944 13.694740060137654 2.669751287267434 -1 0 0
65 1 4.091395004085623 15.100467120692906 1.2812219874579334 0 0 0
194 1 5.4880481719147465 13.77458622493645 2.7680369717738933 0 0 0
198 1 8.07996318001522 13.71757427612687 21.721600059024937 0 0 -1
193 1 9.464924491159064 14.86157768779774 1.3663724140904088 0 0 0
322 1 10.828411026180174 13.73788644828607 2.7313388136983967 0 0 0
321 1 15.014794902421444 14.925217152251314 1.3319562172757422 0 0 0
450 1 16.344409021157734 13.527763065447122 2.529967477026583 0 0 0
449 1 20.38554613641013 15.042494774812997 1.278973884825392 0 0 0
103 1 1.3456200646644088 17.879688266478077 1.3539614346898816 0 0 0
104 1 2.6226118866803594 16.43321046901991 2.792134448424125 0 0 0
228 1 5.368074869112186 16.564164493244807 21.728304962798173 0 0 -1
231 1 6.824168287206982 17.692020068737197 1.12041194009459 0 0 0
232 1 8.131418218216082 16.527892150453717 2.788700821779135 0 0 0
356 1 10.770448005083608 16.228594137212205 0.22553466748931525 0 0 0
359 1 12.33731172109745 17.66439422487724 1.24886604407182 0 0 0
360 1 13.611532899295204 16.30809322420372 2.592513087630244 0 0 0
487 1 17.602728493859424 17.84692232433826 1.4049155429486218 0 0 0
100 1 0.0097458165940032 16.375324758892656 0.053966802160385186 0 0 0
488 1 19.144501017824407 16.24030188031874 2.8237339837540922 0 0 0
7 1 2.8906406622180416 21.767974637772788 2.953887937909848 0 -1 0
98 1 21.77418064742769 19.073720237218573 2.769667311875748 -1 0 0
102 1 2.742670628424668 19.142192610661496 21.74742509827908 0 0 -1
132 1 5.639560729902242 21.684860645133682 0.003659562885207074 0 -1 0
226 1 5.6339519071009825 19.11115138781859 2.8984327159784264 0 0 0
97 1 4.155336651704652 20.44737240227016 1.4671583367975523 0 0 0
230 1 8.263490088467492 19.25635881301434 0.0230948215990833 0 0 0
260 1 11.11452755696899 0.07693168277544515 21.730927196280835 0 0 -1
225 1 9.697126510602777 20.525715350567413 1.4377379090051439 0 0 0
354 1 11.158224003387165 19.09086846185477 2.630717783693819 0 0 0
353 1 15.122595783140351 20.330832295973785 1.3692259958081123 0 0 0
482 1 16.303481757473268 19.076980744787743 2.87696436209735 0 0 0
481 1 20.512443399133275 20.27988319274582 1.337305913819099 0 0 0
486 1 18.99615453961177 18.941705610202757 21.64989520407169 0 0 -1
14 1 2.6231925586087192 2.823071229969755 5.626983145058729 0 0 0
12 1 0.07872159387665509 21.735845078120736 5.288363923883362 0 -1 0
3 1 4.2253278436197785 1.4661688673761513 4.288441123908133 0 0 0
143 1 5.630375215383313 21.756636092729437 5.697842561794606 0 -1 0
142 1 8.387119661371832 2.638696937803809 5.51973061530604 0 0 0
131 1 9.902361017316295 1.4917926506037364 4.244062836216447 0 0 0
268 1 11.045579232518074 21.627474211019212 5.615671781791428 0 -1 0
361 1 15.212009218095078 1.451422243870814 4.170917001439582 0 1 0
270 1 13.512512476295289 2.865750963547254 5.517822724751373 0 0 0
396 1 16.496190012979618 0.10088864851689383 5.58882422759148 0 0 0
5 1 20.328738804419828 1.3287998980555218 3.9611202009877546 -1 0 0
398 1 19.078332354407067 2.495754944079176 5.499580311483866 0 0 0
46 1 1.332511220124445 4.056149516163836 4.007092007574604 0 0 0
44 1 0.060616139729519736 5.56027225777446 5.383384233997822 0 0 0
172 1 5.396013470300055 5.721768479553334 5.536541379100941 0 0 0
133 1 6.866258061538029 4.19826884185319 4.170717020395586 0 0 0
300 1 10.823703355758774 5.699883771343807 5.120450875944952 0 0 0
261 1 12.277455642517328 4.1782800924623125 3.9896089813253806 0 0 0
389 1 17.736062711205854 4.120535801504008 4.207009213045791 0 0 0
428 1 16.38732790686765 5.691625758773486 5.515521315034787 0 0 0
41 1 2.6961904879078835 8.226961398493106 5.3074935197817705 0 0 0
37 1 1.4218505964723647 9.707305797410202 3.806321891767715 0 0 0
35 1 4.037577973003274 6.6840130222949785 4.072301500603529 0 0 0
174 1 8.330111269277655 8.330940376312379 5.593412715472474 0 0 0
163 1 9.506923848664528 7.1723816189036365 3.868845137254256 0 0 0
291 1 15.014064145992283 6.898850288868212 4.008523350403666 0 0 0
302 1 13.48119597645719 8.03297557487057 5.266369715333865 0 0 0
430 1 19.027293412244198 8.315436875077491 5.451298064597208 0 0 0
419 1 20.420355712277235 6.946738867144439 3.9925810539583906 0 0 0
76 1 0.013507310130709245 10.942443784274161 5.184309937623132 0 0 0
67 1 5.374522370720262 10.956318819361245 5.422532108406211 0 0 0
79 1 4.113794731379174 12.122086897121486 4.1113394576306534 0 0 0
165 1 6.745099859543094 9.517823746959325 4.301888547507958 0 0 0
332 1 10.995122676351338 10.998086263186075 5.253182738624446 0 0 0
195 1 9.521007978012642 12.271422041822063 4.084297105061708 0 0 0
293 1 12.333667055572723 9.621453484144434 3.9013939828998914 0 0 0
421 1 17.765152248176687 9.886439529955057 4.212662977724884 0 0 0
460 1 16.313599187311382 10.935686840112764 5.5354564863363125 0 0 0
451 1 20.42441697335286 12.32806975093555 4.052012743209326 0 0 0
69 1 1.4162714846006994 14.960172243413995 4.11106642993808 0 0 0
78 1 2.770257123185092 13.57033082530996 5.513517828989033 0 0 0
197 1 6.877970412670287 14.99905771490475 4.0557428086991605 0 0 0
206 1 8.364762127197427 13.688898121856251 5.51045865091817 0 0 0
325 1 12.101348564913172 15.017105066231649 4.07645283008139 0 0 0
323 1 15.007868779687348 12.322626497230166 3.9977317035636912 0 0 0
334 1 13.723568617731656 13.653970111160005 5.383199126936841 0 0 0
453 1 17.64426650271087 14.860599176940132 3.8455059467742694 0 0 0
462 1 19.07823032455417 13.66089647098323 5.3965095789826965 0 0 0
108 1 21.77291943158813 16.30636802031939 5.522654648664179 -1 0 0
99 1 4.0943314239945545 17.690563913184835 4.01755514052617 0 0 0
236 1 5.407588775403707 16.42382330180172 5.406614698945302 0 0 0
227 1 9.527030766371928 17.89432869190388 4.33628789298489 0 0 0
364 1 10.834857720942484 16.405867415022175 5.551796266053292 0 0 0
355 1 14.892929535856513 17.706039208295312 4.2171407840559265 0 0 0
492 1 16.280431866026728 16.23303702250892 5.412486265095582 0 0 0
483 1 20.415129312677898 17.741946472277363 4.24491267298623 0 0 0
101 1 1.5937148397144523 20.32698972740899 4.158632664661584 0 0 0
110 1 2.8213407695687462 18.832756941660314 5.293126827904727 0 0 0
238 1 8.019341458087837 19.034246835603046 5.489640544773 0 0 0
229 1 6.857881974634731 20.55589160218151 4.121920356298136 0 0 0
357 1 12.377376635657427 20.473218292912726 3.9625231443491917 0 0 0
366 1 13.66546102299425 19.186804173568486 5.4674161987888805 0 0 0
485 1 17.795099582654483 20.267864784209653 4.1646006492352905 0 0 0
494 1 19.080508161678107 19.0967214201416 5.650916733983858 0 0 0
15 1 1.31149874863668 1.3516261534880305 6.759543614973766 0 0 0
138 1 2.697093710299692 0.1274104921103465 8.066001124809631 0 0 0
140 1 5.377500556987245 2.8624312706278694 7.917441400051659 0 0 0
105 1 6.914533184064628 1.4574034129111724 6.946624813623338 0 1 0
266 1 11.053409336405707 2.7292952547095948 7.89906694143113 0 0 0
271 1 12.477621130520133 1.2527868680804943 6.969320640081174 0 0 0
399 1 13.889527195418651 21.631607997107903 8.459709803465584 0 -1 0
394 1 16.119183846559594 2.759027311879526 8.038641408949388 0 0 0
387 1 17.724513026031016 1.4635541104266043 6.948845372006668 0 0 0
10 1 21.55265030786941 2.7746858501314073 8.04532830618592 -1 0 0
400 1 19.068536167530205 0.13256705288602674 8.377646011717989 0 0 0
48 1 2.5090957836146197 5.748014833629185 8.157507048825472 0 0 0
9 1 4.024049806773113 4.34641433058737 6.792692181217847 0 0 0
176 1 8.206818795693742 5.386426596240223 8.15322028727941 0 0 0
137 1 9.538564552934018 4.133408551415313 6.554532284634308 0 0 0
269 1 12.155656392718635 4.052013184294252 9.403471178417515 0 0 0
304 1 13.465679239438046 5.499756516648164 7.980509476906778 0 0 0
265 1 14.896929899636131 4.206845429730294 6.770533815646074 0 0 0
432 1 19.170623295348094 5.36030591390261 8.235073748926201 0 0 0
393 1 20.525109163517737 4.120329175799195 6.787705325002684 0 0 0
47 1 1.1939836690247245 7.130889369970635 6.783366141668741 0 0 0
42 1 21.46253286355841 8.472880855085442 8.210936005727293 -1 0 0
170 1 5.523196131795346 8.234682732617125 8.294329190295711 0 0 0
175 1 6.84442065223614 6.937500955732591 6.9355638372810695 0 0 0
298 1 10.957868859979243 8.383157420045299 8.127393449112388 0 0 0
303 1 11.971119317478747 6.930111341315778 6.748284210577324 0 0 0
431 1 17.91706703922911 6.935380072974851 6.954818740965714 0 0 0
426 1 16.273484387223288 8.263327053470219 8.12451956165719 0 0 0
80 1 2.661759712315856 11.079649917783014 8.089208325805167 0 0 0
84 1 1.1197963104319584 12.277154225111612 6.835465707835096 0 0 0
204 1 3.96431475995389 9.448531402978931 6.819912330076974 0 0 0
208 1 8.092439671619653 10.936011108826142 8.0298367785346 0 0 0
207 1 6.736607134697542 12.351185010887574 6.7774881051818845 0 0 0
169 1 9.693413836459708 9.7402951578193 6.871291619039618 0 0 0
335 1 12.293303156555755 12.36154420419145 6.76528878440476 0 0 0
297 1 15.001618026777923 9.398845905730495 6.622914785880568 0 0 0
336 1 13.625897331475409 10.764629603132272 7.994710841602653 0 0 0
463 1 17.510421987969565 12.424758618544171 6.8066443888207875 0 0 0
429 1 17.595809928236314 9.617882363336804 9.526352782368745 0 0 0
425 1 20.296650234676132 9.761116185765033 6.689990203999307 0 0 0
464 1 18.835984976385472 11.032868567087336 8.138705571786957 0 0 0
74 1 21.679809035159444 13.749974423949167 8.29964535427579 -1 0 0
73 1 4.076011870202272 14.977490689278023 6.9527336548473215 0 0 0
202 1 5.428611716532844 13.812784996249412 8.119202060632293 0 0 0
201 1 9.551305321465026 15.22266646296873 6.873452662515774 0 0 0
330 1 10.867491874826985 13.85441982248299 8.113142039060373 0 0 0
329 1 14.987563776255996 15.105883033517307 6.908844183354747 0 0 0
458 1 16.203483590604353 13.697470670765268 8.167218934801628 0 0 0
457 1 20.43597295604333 15.047290100533193 6.868010477338584 0 0 0
111 1 1.5328009731532348 17.61365129022882 6.717360325799067 0 0 0
112 1 2.904552542103236 16.497709421460314 8.377687395568385 0 0 0
239 1 6.540056005539574 17.818428103248163 6.878723435664779 0 0 0
240 1 8.340259755380755 16.460734792214993 8.194312278259643 0 0 0
367 1 12.344457082050841 17.756094148357555 6.718813367017138 0 0 0
368 1 13.375558641252782 16.447213529588 8.237180017273163 0 0 0
495 1 17.546948730564075 17.68213331063335 6.791552676988371 0 0 0
496 1 19.014783718734424 16.422341485117045 8.057717204130462 0 0 0
106 1 0.042751312749021164 19.014803914903087 8.120715881585445 0 0 0
16 1 5.268685677188276 19.14692420242097 8.231680429607017 0 -1 0
8 1 3.9212207347986823 20.3411008841227 6.78383581017064 0 -1 0
144 1 8.243095235251207 0.09187361609413003 8.234918904604065 0 0 0
233 1 9.474364179115511 20.256476222902844 6.980626629867718 0 0 0
362 1 10.89111422132083 18.90179267377476 8.05431852067428 0 0 0
272 1 15.172163107629453 20.372105415888626 7.046926139246058 0 -1 0
490 1 16.28975049217541 18.910930828102007 8.252143382858378 0 0 0
489 1 20.522622079036953 20.51944049756034 6.878977397239233 0 0 0
23 1 1.3907008430408954 1.3146030523181427 11.906404071256887 0 0 0
22 1 2.7941902708529285 2.9238560093105566 10.787498900550013 0 0 0
20 1 21.69045664796459 21.661968979428995 10.792263790118044 -1 -1 0
11 1 4.148316886925503 1.3571327208073227 9.476366183159636 0 0 0
148 1 5.54705396180778 21.706413414737796 10.940734101430001 0 -1 0
150 1 8.102288869438032 2.8373964304781403 10.795808558825357 0 0 0
151 1 6.874429876948365 1.4521712885937204 12.13971638255645 0 0 0
139 1 9.579240034682071 1.6023568587255022 9.46790925853168 0 0 0
279 1 12.172119860218382 1.4728293526727219 12.08257032297697 0 0 0
267 1 14.977940756758434 1.4465418165749837 9.717712787427471 0 0 0
278 1 13.489989070555813 2.8559214187419326 10.889351543971868 0 0 0
407 1 17.718464891068944 1.5355584933471926 12.299375590485859 0 0 0
395 1 20.37386546569917 1.4290418641718197 9.573879901095797 0 0 0
406 1 18.9366247018148 2.811750360699303 10.879277744291114 0 0 0
13 1 1.2228832173048914 4.1331937064626505 9.334749696056253 0 0 0
180 1 5.507491593142445 5.523390936560908 10.885472045911788 0 0 0
17 1 4.16166410050059 4.193318466755747 12.201372258438727 0 0 0
141 1 6.6637447233248706 4.149477293230578 9.48865506709287 0 0 0
308 1 10.832275816812807 5.434312714422326 10.760255832969605 0 0 0
145 1 9.50872248563798 4.2129393517891485 12.228770639541546 0 0 0
273 1 14.796404518455974 4.126300616564519 12.146562578719811 0 0 0
397 1 17.46661519016808 4.15128084774863 9.430623219198704 0 0 0
436 1 16.019905390143737 5.458756844903757 10.749634715095095 0 0 0
52 1 0.04961200529843014 5.569869915676301 10.900096778928802 0 0 0
401 1 20.38208849865993 4.142554503187851 12.183394336268742 0 0 0
54 1 2.8103966842210735 8.440371085910176 11.021379112496266 0 0 0
55 1 1.4811142380511924 6.9187233937379755 12.340893091045022 0 0 0
43 1 4.138164720233672 6.962373376231532 9.662917600072666 0 0 0
182 1 8.348006528525108 8.197867930856003 10.809944837278286 0 0 0
183 1 6.862618604026395 7.060489178427095 12.247071113947515 0 0 0
171 1 9.703984807261008 6.71195976926463 9.417523435129402 0 0 0
311 1 12.336030648714496 6.805441547354022 12.025613901190564 0 0 0
299 1 14.959205119929909 6.843485561063252 9.252935811536325 0 0 0
310 1 13.619523247198334 8.240019579206734 10.745417445720431 0 0 0
440 1 17.44919833988253 6.783550282832225 12.135468141374824 0 0 0
438 1 20.32075180402233 6.946462280993728 9.701407941579767 0 0 0
427 1 18.9171669702483 8.361332340308028 10.894414583556705 0 0 0
45 1 1.3775748975491873 9.584455634130817 9.5262614317485 0 0 0
87 1 1.1759245414667396 12.301839761034179 12.08013636159925 0 0 0
75 1 4.103653104083145 12.299572831945925 9.363181024731105 0 0 0
212 1 5.626991644705679 10.976644242160077 10.875809006902472 0 0 0
49 1 4.119929557480102 9.689045451275174 12.456524809037855 0 0 0
173 1 6.936612755612559 9.393123580354962 9.562662187522848 0 0 0
215 1 6.898131684285735 12.347600500863654 12.518979724247194 0 0 0
203 1 9.37697509850347 12.283177124063906 9.50448955167117 0 0 0
177 1 9.742289045668734 9.497812115977638 12.32842374895635 0 0 0
340 1 10.902726402727 10.987434067019437 10.688535124488459 0 0 0
343 1 12.203175122500596 12.230731853245326 12.23979304617367 0 0 0
301 1 12.484356097061982 9.627560720035024 9.45166255549053 0 0 0
305 1 14.790242751368632 9.675584755158111 12.451025832384051 0 0 0
331 1 14.802235862599742 12.177711725562242 9.286614038150093 0 0 0
468 1 16.18582411524558 10.834293162072216 11.03907582225786 0 0 0
471 1 17.76006839406552 12.147051668706874 12.204465097207349 0 0 0
439 1 20.466090718041226 9.570997130724006 12.188471998226715 0 0 0
433 1 21.650827086779646 10.802173364876595 10.761551591306223 0 0 0
459 1 20.137477309093615 12.393954854261265 9.571469191794026 0 0 0
77 1 1.4286051153276944 15.061049372385076 9.420820136335323 0 0 0
86 1 2.6732328970540093 13.700794579795815 10.656884423913613 0 0 0
81 1 4.063898513043547 14.950866040432459 12.141842572511319 0 0 0
205 1 7.011222277345271 15.118872482504067 9.430900719408356 0 0 0
214 1 8.036136733945224 13.64664176170767 10.924947201495856 0 0 0
333 1 12.253881261228823 15.05347682787314 9.505165652411733 0 0 0
209 1 9.50650959593197 14.958356038986514 12.457384972051946 0 0 0
342 1 13.580596694670417 13.651989961324533 10.892697838243175 0 0 0
337 1 15.108502917038098 14.985920089300057 12.339913894754394 0 0 0
461 1 17.63548941575319 15.244105949337076 9.542816154479665 0 0 0
470 1 19.040915797222056 13.83507533968482 11.01922672055282 0 0 0
465 1 20.327212363576333 15.100016358734994 12.352386076691527 0 0 0
116 1 21.74762894668084 16.302608079733385 10.919657736997584 -1 0 0
119 1 1.3897448976673683 17.51087839999935 12.398353554661227 0 0 0
107 1 4.257448172736222 17.594169357761764 9.772693580673092 0 0 0
244 1 5.4937809792477745 16.168013210651814 10.913447063463297 0 0 0
235 1 9.659105628626651 17.617604232384135 9.564695826253308 0 0 0
372 1 10.851025619412141 16.35126113468363 10.968088767450444 0 0 0
375 1 12.415442462577616 17.70969629381253 12.323800996602376 0 0 0
363 1 14.824204691819636 17.58186874384361 9.535116389977494 0 0 0
500 1 16.322642706445826 16.552629788969643 11.124791611193533 0 0 0
503 1 17.928281165681376 17.648818948101855 12.315635254164384 0 0 0
491 1 20.407151295519014 17.69720683524856 9.407379969316516 0 0 0
109 1 1.3617714099077658 20.37242792768566 9.35024330525598 0 0 0
118 1 2.737259645363725 18.957216464863848 10.94797220825726 0 0 0
113 1 4.238304926940974 20.319316379856105 12.297582101631727 0 0 0
237 1 6.87213620970744 20.396901436551353 9.606999427941641 0 0 0
246 1 8.30917625325906 19.10531584805385 10.793865449098721 0 0 0
276 1 10.817505778675622 0.09056305554387123 10.825423339981192 0 0 0
241 1 9.586188784623616 20.41781586036912 12.194645832123898 0 0 0
365 1 12.118702501047757 20.391015193117408 9.565451766542578 0 0 0
374 1 13.469009441977386 18.964207145720263 10.780743487183992 0 0 0
369 1 14.905415024848972 20.255539753977928 12.245953607679898 0 0 0
493 1 17.590548965090594 20.46929953903869 9.499859874307868 0 0 0
404 1 16.380076570277414 0.09472245385530503 10.92312664681091 0 0 0
502 1 19.201686250782032 18.945346849685038 10.72110720879362 0 0 0
497 1 20.34909759851003 20.427978191832555 12.215792910738891 0 0 0
18 1 0.18487916939377477 2.7476320801503573 13.599002671003133 0 0 0
19 1 4.1542862315769575 1.1686278100527463 14.963822323016092 0 0 0
146 1 5.37506471535592 2.6442363723788938 13.618056462846596 0 0 0
152 1 8.168508459526617 21.742260304242745 13.600428713805803 0 -1 0
147 1 9.478845149060753 1.355454278753328 14.777431466895246 0 0 0
274 1 10.94142452163946 2.8078991212439797 13.55318384694404 0 0 0
275 1 14.746641596892172 1.3837404054083144 14.81316615137608 0 0 0
402 1 16.14971015557474 2.7974348165221996 13.491572731448288 0 0 0
403 1 20.593892663501435 1.154510565792796 14.925821262385972 0 0 0
408 1 18.990056712168965 21.761983108898583 13.577230706477657 0 -1 0
21 1 1.5196606393968817 4.228329760454224 14.934404349288856 0 0 0
56 1 2.7580288759634977 5.470581325169721 13.596299476712623 0 0 0
149 1 6.777810906877906 3.984403750290309 15.022382499472075 0 0 0
184 1 8.003206535650259 5.424452191955008 13.5964303409379 0 0 0
277 1 12.29426892627743 4.231251943710878 14.942893444600223 0 0 0
312 1 13.78613385222104 5.5454104952952825 13.555276784168012 0 0 0
405 1 17.68520215582621 4.040073523727947 14.790118813152269 0 0 0
50 1 18.954816872733485 5.572089803197327 13.43867570033058 -1 0 0
51 1 4.172912788053904 6.695751395244332 15.143981147540062 0 0 0
178 1 5.502904288326077 8.271673296031706 13.887041090378053 0 0 0
179 1 9.4707638674523 6.834369591652482 14.964358022073112 0 0 0
306 1 11.057332283147591 8.056070336412905 13.626163617832413 0 0 0
307 1 15.072301917952242 6.812660286383487 15.039604791872403 0 0 0
434 1 16.27131044217893 8.066001120540623 13.529786825380814 0 0 0
88 1 0.009154480300400772 8.162252037231132 13.501318502993053 0 0 0
435 1 20.354976407377475 6.831200325499534 14.881823091060237 0 0 0
53 1 1.2947447233382472 9.490684192592358 14.986198568880079 0 0 0
210 1 2.486562699486521 10.858574142446773 13.580517249179808 0 0 0
83 1 3.9532394205655232 12.328741662106571 14.918265580944404 0 0 0
181 1 6.789195383894508 9.505154720526738 15.114990101886484 0 0 0
216 1 8.132613271441652 10.8035913077528 13.640117326114474 0 0 0
211 1 9.544803415604745 12.037222140430774 15.004655533593798 0 0 0
309 1 12.203180728770764 9.47201516526131 14.975610020160163 0 0 0
344 1 13.547350564026544 11.164944231012875 13.818259774197843 0 0 0
339 1 14.90443483002207 12.477305270321411 15.03132683303384 0 0 0
437 1 17.66299102988869 9.471027289686747 14.970973228900203 0 0 0
472 1 19.13148452157632 10.80837199293471 13.550478282908964 0 0 0
467 1 20.238304941624783 12.301836636992704 15.018432510422315 0 0 0
85 1 1.192146613250693 15.043472746922324 15.025370910507213 0 0 0
82 1 21.65319761780771 13.662897358742313 13.514242634367832 -1 0 0
247 1 5.5164538305939 13.714737311299048 13.738711338824384 0 0 0
213 1 6.83844564655637 14.997620448716246 15.194510216886822 0 0 0
338 1 10.897758527429112 13.511075245201393 13.658453082735472 0 0 0
341 1 12.164361527849408 14.954261186772621 15.017264483522546 0 0 0
466 1 16.43368481406618 13.663646947520478 13.691450993186832 0 0 0
469 1 17.72204010205246 15.016585854967406 15.081769791089899 0 0 0
120 1 2.827377344954897 16.272073088160557 13.717110351940292 0 0 0
115 1 4.044856341850984 17.6593317217196 15.019753323573081 0 0 0
234 1 6.8078696138124295 17.538731115805792 12.133579476055951 0 0 0
248 1 8.1012312210257 16.464209143173477 13.716687954587112 0 0 0
243 1 9.592723007500558 18.025515231456215 15.041853679886282 0 0 0
371 1 14.900426878930961 17.721806594867086 14.99088844523262 0 0 0
376 1 13.702448459497496 16.36761813772167 13.683030592424348 0 0 0
499 1 20.528581956470234 17.854885669176692 15.330258668986422 0 0 0
504 1 19.024280511616805 16.478705661387988 13.894183279550846 0 0 0
24 1 2.7210346500174305 21.654038282705184 13.60450338796166 0 -1 0
117 1 1.1878948155891622 20.64386172412282 14.871674040683937 0 0 0
114 1 21.748524886998716 19.124940642293478 13.577584237793513 -1 0 0
242 1 5.504587752474392 18.9118726072652 13.670773875148738 0 0 0
245 1 6.700437011226012 20.41472819201815 15.085692885396671 0 0 0
370 1 10.943870492285678 19.0411929886664 13.485524948071571 0 0 0
373 1 12.173541366941341 20.4837337698491 14.968212265827384 0 0 0
280 1 13.396900751466875 0.013881924463078121 13.498308002041401 0 0 0
498 1 16.285807939646897 18.89744794186591 13.562875634724053 0 0 0
501 1 17.651768358920936 20.467419844716552 14.908608449596734 0 0 0
31 1 1.5539565230166559 1.3064033363155025 17.806411421589235 0 0 0
30 1 2.878345577680266 2.7973850846400112 16.347642121664137 0 0 0
156 1 5.329108436334779 21.70071494869369 16.269228233011013 0 -1 0
159 1 6.801783429251512 1.3593272077855652 17.556004830221752 0 0 0
158 1 8.275051039968394 2.7525488988638225 16.392189218997856 0 0 0
287 1 12.234101929778998 1.328098075646084 17.836739895208513 0 0 0
284 1 10.952124098235522 0.10273788125344491 16.322191627733464 0 0 0
286 1 13.602221284444168 2.7245341390143794 16.242149390561508 0 0 0
415 1 17.72348340838961 1.3584766399788528 17.55997334005831 0 0 0
414 1 19.123591006892923 2.645589399397721 16.180177884356105 0 0 0
60 1 0.136069953482209 5.485179384504456 16.26687646354978 0 0 0
25 1 3.9449839690910347 4.088219881088728 17.731380491003776 0 0 0
188 1 5.544122861428269 5.470195593144855 16.622450535405797 0 0 0
153 1 9.633301965121815 3.96811032694008 17.543146345713925 0 0 0
316 1 10.97149402827586 5.736504132028555 16.293513591742332 0 0 0
281 1 14.853573585962199 3.9839993860262175 17.769812683915077 0 0 0
444 1 16.250367261618667 5.237967129789859 16.300425135564016 0 0 0
409 1 20.360463706559326 4.018950589639914 17.541141449370528 0 0 0
63 1 1.3873240574569852 6.790168564676975 17.83081781092961 0 0 0
62 1 2.857667642481341 8.172372226155963 16.428918073186797 0 0 0
190 1 8.008384692160831 8.232373054734927 16.444869858941185 0 0 0
191 1 6.750116190107879 6.8250616885671 18.059302804708356 0 0 0
319 1 12.437109001763046 6.932249844229003 17.747845689665393 0 0 0
318 1 13.839297390266522 8.190469630574515 16.525973746039828 0 0 0
447 1 17.89610847238956 6.297324099997605 17.391431029720124 0 0 0
446 1 19.00237411806145 8.037322912337451 16.403384943605552 0 0 0
95 1 1.0632268262789306 12.155000579295601 17.709291050777978 0 0 0
92 1 21.560819573362622 10.729323510624804 16.29221022195425 -1 0 0
57 1 4.002666496215632 9.625128106798098 17.704863537603476 0 0 0
220 1 5.160891419132327 10.821461014636224 16.292432594959877 0 0 0
223 1 6.73533979931536 12.229239157247152 17.576655198166232 0 0 0
185 1 9.561318226354379 9.523515060930553 17.646754316335652 0 0 0
348 1 10.958734050709742 10.798080631051386 16.360061133531886 0 0 0
351 1 12.021662420928006 12.23219831391216 17.67357716188071 0 0 0
313 1 14.861448158256344 9.90997586443255 17.82779825888353 0 0 0
476 1 16.325339116323672 11.009154705695327 16.37844365101786 0 0 0
479 1 17.72677099010195 12.156821250715051 17.755457189138856 0 0 0
441 1 20.3122599027932 9.452922623390625 17.739833290450992 0 0 0
94 1 2.5507701954478166 13.507668898871339 16.238505100545776 0 0 0
89 1 4.217558346609691 15.000056264250178 17.64321358551731 0 0 0
222 1 8.244365496500846 13.415286362146743 16.33591200918696 0 0 0
217 1 9.449387569036148 14.921915035535967 17.60347391222647 0 0 0
345 1 15.011465077793458 14.810594745844249 17.862267417985386 0 0 0
350 1 13.350537878770776 13.653886216888882 16.389389362758045 0 0 0
478 1 18.88709027309166 13.766457470105106 16.44715237748541 0 0 0
473 1 20.375723947020035 14.912140117729285 17.65224349166771 0 0 0
127 1 1.3502701626063112 17.83769451778476 17.752609478258417 0 0 0
252 1 5.617975396768894 16.66435506604818 16.33810053279558 0 0 0
255 1 7.108311586878813 18.02406331433282 17.7336763885041 0 0 0
380 1 10.917047612435747 16.3999437122066 16.398367375479694 0 0 0
383 1 12.509956113060198 17.587996617728884 17.812838500392843 0 0 0
508 1 16.193257651948056 16.468658110612132 16.363683613168867 0 0 0
511 1 17.55815417848866 17.95838259488034 17.62771614183101 0 0 0
124 1 21.74660390774445 16.361186573809356 16.548104147971582 -1 0 0
126 1 2.5383511355292145 19.022907188717664 16.27477037129305 0 0 0
121 1 4.120195640080454 20.346710427688777 17.68086220579385 0 0 0
254 1 8.386904327562295 19.29131231976937 16.450195398288148 0 0 0
249 1 9.765865481425648 20.38065350812629 17.949823240637052 0 0 0
377 1 15.049106902015623 20.468806226301364 17.658176726345285 0 0 0
382 1 13.76263600357808 19.21575496092454 16.349185444352642 0 0 0
412 1 16.20065128059869 0.14677820036532552 16.128492215903346 0 0 0
28 1 0.19101439304594772 0.04215792896657078 16.489466300598895 0 0 0