LAMMPS data file via write_data, version 10 Sep 2025, timestep = 10000000, units = metal

513 atoms
1 atom types

0 21.781566 xlo xhi
0 21.781566 ylo yhi
0 21.781566 zlo zhi

Masses

1 28.085

Atoms # atomic

513 1 0.08971870475039685 0.955085442351584 2.5923420978470353 0 0 0
132 1 2.1955547027925233 1.049488670479109 0.35989767954334956 0 0 0
6 1 2.023713299692489 3.3909973682119987 0.5984673870623165 0 0 0
2 1 0.4651468691112006 3.1276531542608197 2.2089278431059594 0 0 0
130 1 5.445648357284637 2.8516237498530788 2.924960940852334 0 0 0
135 1 6.777026172980721 1.2739453457850576 1.5189625941392688 0 0 0
134 1 8.129346116169138 2.786430084903873 0.32526602285170453 0 0 0
258 1 10.852542915957454 2.867526149422555 2.8169233560416047 0 0 0
263 1 11.975065169601919 1.480715510503609 1.2302088113693888 0 0 0
260 1 10.5147402381189 21.712148171752055 0.05580864910534867 0 -1 0
264 1 13.385538504687682 0.13353417380957566 2.7005710251347126 0 0 0
391 1 17.643193014173036 1.1004380884608551 1.1519085872345776 0 0 0
386 1 16.406358021250444 2.4610929494077696 2.537134059282029 0 0 0
40 1 2.767877868352821 5.539344343879014 2.752434476137819 0 0 0
1 1 4.03168759361522 4.17297175564589 1.3658608833406432 0 0 0
164 1 5.437207155914363 5.72521644208122 0.09502493197001226 0 0 0
168 1 8.105141159849786 5.516079425550738 2.8735885593315773 0 0 0
129 1 9.430197106520586 4.22899217748242 1.4465642029667534 0 0 0
292 1 10.903028698506395 5.515919293674578 0.2245743240419209 0 0 0
257 1 14.909971933770565 3.9170473824371137 1.2353455806091649 0 0 0
296 1 13.743025794321259 5.256968713115367 2.7350072009683704 0 0 0
420 1 16.275139919778283 5.3785523836488025 0.03615284174899911 0 0 0
424 1 18.887548583885195 5.452076591079134 2.451925569769428 0 0 0
385 1 20.369517204477667 4.089582325954507 1.21031218773941 0 0 0
39 1 1.2940926589361208 6.778897706263878 1.2084881372076464 0 0 0
34 1 0.16280392490873297 8.26927827484008 2.719143279478422 0 0 0
38 1 2.651809655171367 8.227133447233882 21.613215181721863 0 0 -1
162 1 5.489905766578927 8.231544162697597 2.7495147889821294 0 0 0
167 1 6.737789644038724 6.977784180097857 1.4970400900084988 0 0 0
290 1 10.64215605989546 8.438003857823295 2.681367890800465 0 0 0
295 1 12.312426133922738 6.953522983272803 1.465741774285754 0 0 0
423 1 17.546970250417548 6.975576931381395 1.2586343970574874 0 0 0
418 1 16.4492445527283 7.856053958672203 2.9040583125317823 0 0 0
422 1 18.947335389368092 8.361149718975792 21.775833825132473 0 0 -1
72 1 2.608181062134284 10.943580002864064 2.8918723810315696 0 0 0
71 1 1.450403847865507 12.226491360991622 1.400840470306082 0 0 0
33 1 4.047590237012077 9.601622011543885 1.4129660211813642 0 0 0
196 1 5.627150061114696 11.038297741598326 0.01643667797963884 0 0 0
200 1 8.082444216015976 11.14984570425172 2.6408972404361744 0 0 0
199 1 6.773388981029858 12.817968749276618 1.371100987774507 0 0 0
161 1 9.335193715047385 9.638639362395825 1.3584511035576463 0 0 0
327 1 12.209738200693803 12.112261656034475 1.1952851158559048 0 0 0
289 1 14.993442714688218 9.410869448366526 1.737818731746504 0 0 0
328 1 13.58272693619257 10.833928513062101 2.7189413400783686 0 0 0
452 1 16.272469422315798 10.917387133456149 0.13013220266583406 0 0 0
455 1 17.732036947284925 12.396337482001549 1.3687642228897312 0 0 0
417 1 20.544700960681887 9.595666726753256 1.3432077527191093 0 0 0
456 1 19.202123290466456 10.91963565740564 2.630445195659099 0 0 0
65 1 4.046109917734116 14.917348053239376 1.2154132643881783 0 0 0
194 1 5.262830394278809 13.802317641457739 2.7025948010559424 0 0 0
198 1 8.237398816163822 13.860463877845739 21.492173377801937 0 0 -1
193 1 9.581035945736778 14.952637065389215 1.2597734334104587 0 0 0
322 1 10.9765625303977 13.592071809830014 2.6424434302847066 0 0 0
321 1 14.96301014355603 14.770602855474015 1.3171024247231635 0 0 0
450 1 16.333923496827573 13.787027215529926 2.7425946815302873 0 0 0
66 1 0.07428451041062506 13.620099541819581 2.5802916265972637 0 0 0
449 1 20.31123245002962 14.988027407741084 1.0691454814953634 0 0 0
103 1 1.313540902202743 17.454150579380592 1.2068873706355046 0 0 0
104 1 2.810688491045299 16.18709639094887 2.652237146975373 0 0 0
100 1 21.7244616171519 16.235612566025814 21.621077512075242 -1 0 -1
231 1 6.7260095229332535 17.614318240220584 1.3260125355579266 0 0 0
232 1 8.153625924933252 16.360575873842983 2.8362715663418485 0 0 0
359 1 12.24446214973209 17.57151241319793 1.1781819705496925 0 0 0
360 1 13.421281987084859 16.30942302994383 2.6326812246348115 0 0 0
487 1 17.433945654212266 17.63153528395224 1.336453266844284 0 0 0
488 1 18.97532507415865 16.31952225954578 2.485675806552863 0 0 0
8 1 2.585259336752363 0.05386267469259845 2.7553071130293034 0 0 0
102 1 4.174961472850405 20.23751552370033 1.4984376533073938 0 0 0
226 1 5.429046355569143 18.80080221234993 2.9085666959590943 0 0 0
136 1 8.101347548213443 21.75820245595042 2.9735678051366423 0 -1 0
230 1 8.284130225570097 18.928425986035023 0.21674455953640148 0 0 0
225 1 9.43569017648516 20.284109784393426 1.5739533164069905 0 0 0
354 1 11.049167328417845 18.983336581072596 2.619865055562727 0 0 0
353 1 14.613963884550992 20.58686266891713 1.3512639888456048 0 0 0
358 1 13.482021000318742 19.16835814008116 0.00919852707763425 0 0 0
482 1 16.24085352644004 19.286080813219698 2.793999249977448 0 0 0
388 1 16.1319107168088 21.705506290584612 21.750517888387407 0 -1 -1
392 1 18.72826781641006 21.514762673298726 2.57707749427842 0 -1 0
98 1 21.76508361760695 18.778785629689484 2.6229511842967224 -1 0 0
481 1 20.25726366669342 20.150260705567064 1.2882483490017305 0 0 0
486 1 19.13023634624654 18.782937382430923 21.747642779613837 0 0 -1
14 1 2.5955738991655655 2.798475006675723 5.477420404014306 0 0 0
3 1 3.886285851061924 1.3143692375779872 4.1311091461661755 0 0 0
142 1 8.190845165158855 2.9055149854367146 5.497292734761699 0 0 0
131 1 9.433408719798493 1.4608288457334697 4.099896195575599 0 0 0
259 1 14.693187146181062 1.3195534717024027 3.995114496485424 0 0 0
270 1 13.292324554888872 2.8461707306979807 5.53114221556325 0 0 0
396 1 16.033617064778852 0.02648908287269336 5.393103162549349 0 0 0
398 1 18.922441222911157 2.4926026755381936 5.671607532554036 0 0 0
387 1 20.015873009254705 0.7599402004824956 4.317777080442873 0 0 0
5 1 1.3293639984264098 4.192737691262493 4.110646761252565 0 0 0
44 1 0.016576104650483574 5.459866439913573 5.563032638821186 0 0 0
172 1 5.4000202060971 5.693864927676968 5.634155024919516 0 0 0
133 1 6.723743637606607 4.118528724580978 4.376824442729758 0 0 0
300 1 10.892787144183306 5.496836723324151 5.508264107272206 0 0 0
261 1 12.17341001095689 4.2686710157506145 4.1249653155497725 0 0 0
389 1 17.64411484376165 3.7839526594963813 4.054880757571495 0 0 0
428 1 16.316577293739318 5.248208252390824 5.4353929421226646 0 0 0
46 1 2.7011161932221666 8.313700007480643 5.500696308586277 0 0 0
37 1 1.1907213561586685 9.568529014664968 4.13978984898898 0 0 0
35 1 4.052996852901995 6.861572781910465 4.063638316508266 0 0 0
174 1 8.051878801378079 8.243720023563155 5.263642587705375 0 0 0
163 1 9.622491035621467 6.8855285419732715 4.069685173849629 0 0 0
291 1 14.788831047921636 6.694241822051946 4.194762481059486 0 0 0
302 1 13.672288999898203 8.254419502989267 5.485727934565514 0 0 0
430 1 19.121283101364405 7.903536155935385 5.3541157517918565 0 0 0
419 1 20.60536298727013 6.523524938642408 3.901234889493187 0 0 0
76 1 21.709379179062527 10.84887869129254 5.335339333855341 -1 0 0
204 1 5.482270909869016 10.95952001835087 5.374038126271086 0 0 0
67 1 4.0211545840601035 12.360815856498286 4.116326036275084 0 0 0
165 1 6.783288382198483 9.695180176139594 3.9617326028601383 0 0 0
293 1 12.309002132761549 9.673388400141109 3.992213785116266 0 0 0
332 1 10.763269532129652 10.920392153951493 5.500240800712107 0 0 0
195 1 9.545719412022667 12.431315762452883 4.150130893269171 0 0 0
323 1 14.768514349396733 12.140390964877863 4.047180088797469 0 0 0
421 1 17.89434159319519 9.388548596073495 4.075874913056637 0 0 0
460 1 16.30042864692744 10.84560760661832 5.255096514445157 0 0 0
451 1 20.646918606829253 12.288159833296998 4.06854571928231 0 0 0
69 1 1.5050432565479945 14.87211966966396 4.012024147116274 0 0 0
78 1 2.7267463598527644 13.586730231211684 5.644983638643442 0 0 0
197 1 6.709949742099519 14.926426264895465 4.2027697337119205 0 0 0
206 1 8.020053339961516 13.689459916926833 5.475232458689181 0 0 0
325 1 12.204289744754325 15.022517028049066 4.123051332584828 0 0 0
334 1 13.525013739329387 13.631793918682115 5.342018202055081 0 0 0
453 1 17.695735237037177 15.109831642743973 4.1558111311742785 0 0 0
462 1 19.149569667268597 13.475438300956483 5.400709348696229 0 0 0
108 1 0.09529339657774581 16.397014977662717 5.366302499415728 0 0 0
99 1 4.048229135632633 17.429846277264325 4.093510335949373 0 0 0
236 1 5.336666569753281 16.27009439198274 5.598744789112527 0 0 0
227 1 9.477252024842208 17.748868588670952 3.9387579216688895 0 0 0
364 1 10.822377389813747 16.35871558820549 5.339463457661516 0 0 0
355 1 14.866345955582869 17.703591767337016 3.960372481532102 0 0 0
492 1 16.268798032872148 16.532796679595776 5.507386491245033 0 0 0
483 1 20.339222857537052 17.656771572252385 4.000584460099759 0 0 0
110 1 2.7382725897514804 18.847110414731254 5.409419339918948 0 0 0
101 1 1.335723136451717 20.104671244859766 4.037534367254417 0 0 0
140 1 5.376114094356929 21.762352262981242 5.447773640629624 0 -1 0
238 1 8.198257262923837 19.130458565024732 5.4520163588954205 0 0 0
229 1 6.567084413213556 20.408434263145146 4.131793652030835 0 0 0
268 1 10.689309195212218 21.75252449877056 5.397836678932415 0 -1 0
357 1 12.19145656296905 20.42757424902691 4.095168001500708 0 0 0
366 1 13.568348474378709 19.175000306311244 5.478942338770408 0 0 0
485 1 17.65742227423305 20.269192714438653 4.1413353719338195 0 0 0
12 1 0.22012688844663428 21.621506546828382 5.5434725401275795 0 -1 0
494 1 19.119979005619175 18.901698713850045 5.448982792764326 0 0 0
15 1 1.3762931205609714 1.3873963154707962 6.981396071263108 0 0 0
10 1 21.715915924165376 2.7740648282485036 8.473834387144572 -1 0 0
16 1 2.7414139006356963 21.679783005067357 8.38016719873789 0 -1 0
138 1 5.231799651851432 2.935848547876629 8.378001961816768 0 0 0
143 1 6.490202248552875 1.658142625046199 6.745429576071081 0 0 0
144 1 8.01171739581153 21.763803313909698 8.090272226408356 0 -1 0
266 1 10.913766488759093 2.93737681098182 8.368998464723791 0 0 0
271 1 12.059146531172669 1.4810270266124148 6.924651112623695 0 0 0
272 1 13.416505956660417 0.24506570923353624 8.33486043362011 0 0 0
399 1 17.502793482715614 1.3671287225979976 6.885691333008119 0 0 0
394 1 16.30095811081996 2.7912361621222557 8.17617832508613 0 0 0
48 1 2.664744493126161 5.593138527281985 8.289657688440844 0 0 0
9 1 3.9581218829489178 4.268584398852845 6.879528570894903 0 0 0
176 1 8.141282335051836 5.42254673967793 8.327468833406504 0 0 0
137 1 9.563902870959305 4.182634109773606 7.03387258482961 0 0 0
265 1 14.916600619217562 4.041827596652085 6.891858303725219 0 0 0
304 1 13.598407259248367 5.508025842660655 8.126256510604767 0 0 0
432 1 18.990465514437723 5.384135953600787 8.093525752769255 0 0 0
393 1 20.40995838920373 4.071483354543507 6.923002330990746 0 0 0
47 1 1.3889278280855835 6.960646494924269 6.882294588692702 0 0 0
42 1 0.23769205115458547 8.315548908263285 8.29468272221077 0 0 0
170 1 5.352134222474093 8.242242585231692 8.198621134708562 0 0 0
175 1 6.880035967672617 6.988066147218808 6.993093715942362 0 0 0
298 1 10.710740720696304 8.165060302837636 8.29580308935643 0 0 0
303 1 12.251871231344422 6.977342731887731 6.820093749482447 0 0 0
426 1 16.427509179306686 8.250660642939424 8.18313606365838 0 0 0
431 1 17.64710902437516 6.783598928651022 6.77953141229529 0 0 0
80 1 2.8925800642890884 10.854459757468039 8.204672224200358 0 0 0
79 1 1.2749702275823807 12.266060840340229 6.7603190989466295 0 0 0
41 1 4.132267103321522 9.658314486634662 6.801686990046338 0 0 0
208 1 8.06751168151456 10.821091359529946 8.084844295574053 0 0 0
207 1 6.7736413055699085 12.212204678615997 6.763111018716294 0 0 0
169 1 9.370543169738932 9.454680600228626 6.756184593295482 0 0 0
335 1 12.225140867214561 12.21072415638531 6.826726895264874 0 0 0
297 1 15.024082620489521 9.514324527581556 6.743182003386354 0 0 0
336 1 13.562487729017265 10.915849297477166 8.15515364062548 0 0 0
463 1 17.815975003838286 12.092552195861131 6.739774748540082 0 0 0
425 1 20.409232432419067 9.345400084557156 6.822504200756998 0 0 0
464 1 19.23560879400828 10.888619383498948 8.10782507712273 0 0 0
74 1 0.03428234393153318 13.652961879777367 8.24601228166681 0 0 0
73 1 4.154154848601483 14.945155588397368 7.097971553182942 0 0 0
202 1 5.737511053883428 13.532855945094783 8.321547112050373 0 0 0
201 1 9.449292897302184 14.92613199798616 6.538737361533139 0 0 0
330 1 10.992945730715741 13.780722839211652 8.106331265075898 0 0 0
329 1 14.857538598599154 15.26498985191755 6.742848396507175 0 0 0
458 1 16.33876924169198 13.597919141083121 7.9473268572011415 0 0 0
457 1 20.45029661885937 14.980832510982973 6.737845109506223 0 0 0
111 1 1.4643351416188852 17.701913872612707 6.81319985840849 0 0 0
112 1 2.5807013867043747 16.286253603761892 8.155483378395445 0 0 0
239 1 6.911799326489845 17.66404762412529 6.807928213448764 0 0 0
240 1 8.366643212709839 16.35339340843856 8.095431542748543 0 0 0
367 1 12.136708493812606 17.61165018424344 6.771452502175098 0 0 0
368 1 13.540089771873095 16.45675129449558 8.154062408958733 0 0 0
495 1 17.680562908353068 17.72276080229315 6.971086149614409 0 0 0
496 1 19.165205089022 16.34922134866232 8.099358560767785 0 0 0
105 1 4.15257871359311 20.259980007983785 6.834980823129892 0 0 0
234 1 5.60978632252852 18.84210738556006 8.358658313114542 0 0 0
233 1 9.473823605745583 20.400037321599694 6.915597487781403 0 0 0
362 1 10.905738397494837 19.032799538526564 8.249002444002864 0 0 0
361 1 14.760659150949857 20.591409977989613 6.934901535214446 0 0 0
490 1 16.280603104081134 19.21662951499997 8.135341810127098 0 0 0
493 1 17.654834768877105 20.556719343498095 9.566091713998883 0 0 0
400 1 19.120165009540134 21.779756899854082 8.158386954570501 0 -1 0
106 1 0.050524911528320116 19.033280491591064 8.12763556424484 0 0 0
489 1 20.338205860771772 20.35623960552834 6.765152979034455 0 0 0
22 1 2.7573786648616556 2.8090487005551714 11.133718406696076 0 0 0
23 1 1.3256073514778284 1.4896597026439522 12.396493453595557 0 0 0
20 1 0.04455210346231238 0.20657683433304896 10.900617436348062 0 0 0
11 1 3.9875028134088457 1.5670549098878426 9.773540821784616 0 0 0
148 1 5.499864006981247 0.14224402631987942 10.80624944360218 0 0 0
150 1 8.269679695848327 2.7845163323954782 10.834481785977825 0 0 0
151 1 6.786623638230797 1.6514010624647595 12.120282408107329 0 0 0
139 1 9.467499214407328 1.3759009942416263 9.306378384284319 0 0 0
279 1 12.291355693297307 1.6124538161271316 12.360709289203868 0 0 0
276 1 10.948896538733395 0.15810198046545415 10.945169793133719 0 0 0
267 1 14.942411707914719 1.462405914379915 9.443762294653363 0 0 0
278 1 13.667690972269911 2.8309859934502843 10.913957347592236 0 0 0
407 1 17.78964130098773 1.3953215729733541 12.165168870511662 0 0 0
404 1 16.227563853203147 0.1136878256387206 10.742868780508557 0 0 0
395 1 20.348176597550587 1.3762452749329885 9.750482065548667 0 0 0
406 1 19.063422724143134 3.029292163271951 10.942595112851688 0 0 0
13 1 1.4907013095430925 4.08446620210928 9.690429128030107 0 0 0
180 1 5.433919758116462 5.403842624353327 11.017296692435078 0 0 0
141 1 6.793114189199549 4.082883645190631 9.689973319967883 0 0 0
269 1 12.21956446763773 4.307130646296082 9.824930207717653 0 0 0
308 1 10.773403138983149 5.666551365956743 11.074537584490498 0 0 0
273 1 14.85265823989726 4.239039090064754 12.242642399815068 0 0 0
397 1 17.566769272866658 4.234840645568772 9.507051657719614 0 0 0
436 1 16.17504198283958 5.671642272434768 10.851905191105388 0 0 0
52 1 21.753534129706946 5.413352162127297 11.0859389549119 -1 0 0
401 1 20.409929344525832 4.144885985002672 12.497670296583932 0 0 0
54 1 2.772888593161726 8.191644815415515 10.979908934101104 0 0 0
55 1 1.215150568035075 7.000969669340628 12.484745781399633 0 0 0
43 1 4.19216568095914 6.855442742528026 9.627423240325053 0 0 0
182 1 8.17202469801569 8.338203424660808 10.703944228758976 0 0 0
183 1 6.971087255425394 6.843910780361986 12.150088938665283 0 0 0
171 1 9.4164341006468 6.80714551976284 9.567250579730324 0 0 0
311 1 12.173366684600337 6.888596786077523 12.433584044384279 0 0 0
299 1 14.74096545067477 7.057809280768702 9.370722759173887 0 0 0
310 1 13.390314771129683 8.346895977659704 10.84666278312868 0 0 0
439 1 17.722402450360512 6.72034459748324 12.265978956756118 0 0 0
427 1 20.538333390141926 6.887625520253466 9.477081008539827 0 0 0
438 1 19.1044303543538 8.17300166194812 10.957645007042494 0 0 0
45 1 1.557077324575348 9.620286264062232 9.630939300108816 0 0 0
87 1 1.6132355450641394 12.361097416596243 12.202186722505267 0 0 0
75 1 4.238520667690891 12.237539771323446 9.656460445697503 0 0 0
212 1 5.531973401996948 10.806811452405812 11.09160964152116 0 0 0
49 1 4.134179237794725 9.367913278080218 12.453924577465148 0 0 0
173 1 6.695744429090544 9.597274043243003 9.519990161314634 0 0 0
215 1 6.939669955534395 12.210028431919621 12.216306976417485 0 0 0
203 1 9.610644928042204 12.266848004242215 9.239856496193216 0 0 0
177 1 9.836943196681876 9.51045107364799 12.31565992616836 0 0 0
340 1 10.905658890934786 11.08571349308183 10.75809820275491 0 0 0
343 1 12.291878313564643 12.252322569061588 12.259559220838332 0 0 0
301 1 12.117717875605704 9.695000444512148 9.493397671437299 0 0 0
305 1 14.874395260280863 9.567775988949489 11.991727503903263 0 0 0
331 1 15.074438246233948 12.359910680110385 9.54118209501901 0 0 0
429 1 17.889577457463922 9.521828060566067 9.391286026634665 0 0 0
468 1 16.43076366532724 10.833794130317585 10.81760048383217 0 0 0
471 1 17.917540087137876 12.008204232491204 12.125934516718258 0 0 0
84 1 0.04852402351022178 11.098770887552837 11.036102725014208 0 0 0
433 1 20.558018906207543 9.45492345874743 12.388999127667462 0 0 0
459 1 20.491045948083396 12.234737753692766 9.518163859594111 0 0 0
77 1 1.3765477117436702 14.96756544569029 9.635864784674009 0 0 0
86 1 3.0432922609975166 13.76662078217996 10.705008328751974 0 0 0
81 1 4.191163456448517 15.171038690451923 12.338855263234143 0 0 0
205 1 6.946402861814884 15.02791119013953 9.558595394559788 0 0 0
214 1 8.413427161564094 13.651879566495314 10.827721302253169 0 0 0
333 1 12.170625716170337 14.935637807814414 9.40829623283666 0 0 0
209 1 9.780019950182632 14.974927350875564 12.242429392637886 0 0 0
342 1 13.498810471187127 13.621656683372805 10.765915162792226 0 0 0
337 1 14.969866941102465 14.891699989162369 12.130359685273797 0 0 0
461 1 17.73484830599017 14.838679700410204 9.238129909455036 0 0 0
470 1 19.05452909561715 13.569845825783414 10.769767817585228 0 0 0
465 1 20.406387388990613 15.086300110133276 12.08247012111146 0 0 0
119 1 1.420651855736157 17.713129552873088 12.285702010301774 0 0 0
116 1 0.0705750694349021 16.385581745119595 10.914541107072711 0 0 0
107 1 4.002517202865447 17.646435876653655 9.329840104023997 0 0 0
244 1 5.501296674557171 16.387056264401593 11.012766152180827 0 0 0
247 1 6.772554718423311 17.804952140229183 12.309940060479562 0 0 0
235 1 9.707225738729605 17.647044800372896 9.458819412699205 0 0 0
372 1 10.916031392818365 16.236944106470876 10.800008012348766 0 0 0
375 1 12.214508696058237 17.671785028255364 12.221262137578556 0 0 0
363 1 14.840055868733183 17.778762365536924 9.568748156306663 0 0 0
500 1 16.363301656330158 16.286311935436242 10.623063434336625 0 0 0
503 1 17.53213503972627 17.621607836647005 12.073666159965983 0 0 0
491 1 20.47545660706377 17.7846249445044 9.499887925063861 0 0 0
109 1 1.3187440831337778 20.34701120438594 9.48741946109306 0 0 0
118 1 2.794054500380369 19.09867809554572 10.86767010032686 0 0 0
113 1 4.186608700183461 20.682056466123147 12.099516311093511 0 0 0
237 1 6.904751954957238 20.278850559129587 9.538044469663996 0 0 0
246 1 8.470842488727758 19.027141855043283 10.881633217152986 0 0 0
365 1 12.2537259262102 20.588583255570768 9.690827088901722 0 0 0
241 1 9.660193041509329 20.66900712481308 12.51558375817771 0 0 0
374 1 13.664556921740758 19.178864754190116 10.92800814076217 0 0 0
369 1 14.900460261005847 20.559221667779635 12.24092418772381 0 0 0
502 1 18.908346404562902 19.042270805864042 10.827909943640718 0 0 0
497 1 20.368423490970454 20.44678610013543 12.096081272413944 0 0 0
24 1 2.697778350417236 0.07454517446459974 13.536898644200756 0 0 0
19 1 4.225969116868766 1.3231412279108594 14.975833371315275 0 0 0
146 1 5.324887527997255 2.78387285922499 13.606667806647554 0 0 0
245 1 8.043942508355812 0.14438614996280918 13.54019148136882 0 1 0
147 1 9.466736736140636 1.2202652757617711 14.939431377701565 0 0 0
274 1 10.843329987044328 2.758090768840517 13.664347060578653 0 0 0
275 1 15.059855701044638 1.308384591034128 15.123703577773156 0 0 0
402 1 16.381075556147266 2.8324732098957788 13.572917741453084 0 0 0
18 1 0.07902590660500763 2.8248150024356145 13.7948165122842 0 0 0
403 1 20.506997101532757 1.3632646146179572 14.99049353706289 0 0 0
408 1 19.001600099235294 0.032018614124235734 13.623410693762144 0 0 0
21 1 1.269908276260674 3.9857764727878564 15.395090062124972 0 0 0
56 1 2.56965616813517 5.487116174050953 14.053971538899102 0 0 0
17 1 3.970620273601239 4.251083462085997 12.559224313093333 0 0 0
184 1 8.15159755424609 5.439970095629167 13.61359822957342 0 0 0
149 1 6.929801172687906 3.9227229532751293 14.864829402535394 0 0 0
145 1 9.52235140831316 4.041699106732211 12.261555927195117 0 0 0
277 1 12.139425196292974 3.966714605020893 15.138699581900308 0 0 0
312 1 13.455489885113764 5.457838211035081 13.588703708502289 0 0 0
405 1 17.72309739771294 4.1057741630216 15.267164544266125 0 0 0
440 1 19.057327266086954 5.523254142389578 13.90422634862654 0 0 0
50 1 21.62302023828636 8.228063702088017 13.962758155527556 -1 0 0
51 1 4.471861686314565 6.722439019477912 15.114968747912526 0 0 0
178 1 5.684047090533473 8.019712964619625 13.74464067888918 0 0 0
179 1 9.609830306212338 6.593698643585632 15.02789419306131 0 0 0
306 1 10.809896662129939 8.047248521755208 13.658485169512822 0 0 0
307 1 14.969555451314463 6.793445585289729 15.110641898522852 0 0 0
434 1 16.19810454244503 8.167108377971084 13.437802842216476 0 0 0
435 1 20.54976928848588 6.8777934057819845 15.480765288871046 0 0 0
53 1 1.4447612183133307 9.49791111605708 15.09040689736583 0 0 0
88 1 2.7469397906034874 10.807929057284504 13.700598101101955 0 0 0
83 1 4.2074576357623235 12.196549274162255 14.842177520034895 0 0 0
181 1 6.898647730714669 9.462190806329629 15.010287107494753 0 0 0
216 1 8.17517603995533 10.796875213231951 13.664008630877458 0 0 0
309 1 12.206863920390592 9.354063870952954 15.054858638212655 0 0 0
211 1 9.630114355212424 12.36317220004272 14.88217998874678 0 0 0
344 1 13.555530690777895 10.738197575230792 13.493486920002013 0 0 0
437 1 17.53118010384331 9.501445679756714 15.003502211951414 0 0 0
472 1 19.083400527300597 10.82864334621647 13.734254193762666 0 0 0
467 1 20.676019694625552 12.231979472924385 15.062471237617373 0 0 0
85 1 1.4482539896426558 15.244278213211944 14.820810630254034 0 0 0
210 1 5.502929538139413 13.580764549018854 13.569588416711394 0 0 0
213 1 6.799749274289439 15.135021342264201 14.79529603937157 0 0 0
338 1 11.164531331125662 13.769327268728121 13.683800119617207 0 0 0
341 1 12.483093551099618 15.215733155637158 15.034903285492843 0 0 0
339 1 15.097262319142907 12.369314596915844 14.689173146565032 0 0 0
466 1 16.67050696114428 13.659436798540959 13.320421564996515 0 0 0
469 1 17.851756593755145 14.843263245217619 14.879198750547154 0 0 0
82 1 0.056001371739373695 13.794254213231778 13.609394676121166 0 0 0
120 1 2.9684457939899365 16.487818222007196 13.630230259417827 0 0 0
115 1 3.9857958676506975 17.892207076109 15.084629767849288 0 0 0
248 1 8.363628272520852 16.546004323841824 13.409710815571088 0 0 0
243 1 9.753488711623648 17.59473421119811 15.030450322025015 0 0 0
371 1 15.142080896443025 17.91357645461926 14.818443336916713 0 0 0
376 1 13.870387550328804 16.400466014877992 13.553450959856645 0 0 0
504 1 19.04333180460969 16.279162682975077 13.490093580992994 0 0 0
499 1 20.4308049640062 17.574371493917198 14.956214798927816 0 0 0
117 1 1.4185520849191429 20.52299784135547 14.770227068806847 0 0 0
114 1 0.01667939739784785 19.17601778420414 13.410000244121571 0 0 0
242 1 5.446147238298589 19.246949711818722 13.493910893731725 0 0 0
254 1 6.9486621312622985 20.41665955200901 14.98556971482376 0 0 0
370 1 10.85662211778567 18.888629921571976 13.557466309529728 0 0 0
373 1 12.15766958082516 20.25317914167876 14.835342942076187 0 0 0
280 1 13.537183440803181 0.17391337275871166 13.703429274224234 0 0 0
498 1 16.38014667554939 19.079894342238266 13.36999729344989 0 0 0
501 1 17.6527264478932 20.36295877629494 14.924457757947948 0 0 0
31 1 1.291422184474279 1.3337741415156388 17.591241134978368 0 0 0
30 1 2.839439591699196 2.617469828953331 16.408753981388443 0 0 0
156 1 5.620268425320451 21.687751731653222 16.332261080359082 0 -1 0
159 1 6.812709907325353 1.2159042382038083 17.7794273022 0 0 0
158 1 8.10224905800586 2.519701986399507 16.407555513573687 0 0 0
287 1 12.192350317082271 1.3816221628758862 17.620334968828963 0 0 0
286 1 13.633271587101559 2.7118629075775904 16.37003168610306 0 0 0
415 1 17.780242738864203 1.3084767188244737 17.598186196954682 0 0 0
414 1 19.030155104037814 2.5028472211401884 16.318319058288125 0 0 0
25 1 4.2269402015786985 4.020505905233712 17.75575678895452 0 0 0
188 1 5.6557083807241035 5.275170559654683 16.460182490760634 0 0 0
153 1 9.433563833487318 3.8807342367619295 17.795045157572115 0 0 0
316 1 10.902802053452955 5.328365131601076 16.684065205044856 0 0 0
281 1 14.897239957904993 4.136922853593125 17.679680626258474 0 0 0
444 1 16.42675306692076 5.422351237623002 16.55475133945636 0 0 0
60 1 21.717038896130934 5.421545300897907 16.720148931544845 -1 0 0
409 1 20.216219722286365 3.8966873181545574 17.810978392780658 0 0 0
62 1 3.093701104429096 8.056022203467103 16.381567292159076 0 0 0
63 1 1.6115975255482913 6.6995795947079815 17.868652314288205 0 0 0
190 1 8.319765431723914 8.12467285556068 16.356499135401506 0 0 0
191 1 6.998479115612985 6.740702088504845 17.717772058599213 0 0 0
319 1 12.479635949587921 6.716958576650111 17.961073298063166 0 0 0
318 1 13.603352507810662 8.168572813887943 16.53075636924081 0 0 0
447 1 17.86043714649199 6.820910122479663 17.79769698136262 0 0 0
446 1 18.936022010327214 8.169021154777083 16.20392116624723 0 0 0
94 1 1.3947039345280239 12.38479448310101 17.652143577867665 0 0 0
92 1 0.14762833904328476 10.690716348310636 16.44624874183799 0 0 0
57 1 4.1383470552615425 9.747021180072165 17.619163397093565 0 0 0
220 1 5.5355558578532085 10.825612648009475 16.191599682419575 0 0 0
223 1 6.983940757553052 12.134905785564952 17.521843012891864 0 0 0
185 1 9.729594537299535 9.384834792181737 17.731537645453507 0 0 0
348 1 10.742515519566613 10.73883294956944 16.206039740452724 0 0 0
351 1 12.331012822127803 12.029165834362567 17.708069641978458 0 0 0
313 1 15.110740365994861 9.570413187021506 17.65387497024953 0 0 0
476 1 16.346770800721384 11.064182985574615 16.309067821225376 0 0 0
479 1 17.731463377685003 12.338381247646694 17.70275242567659 0 0 0
441 1 20.42379097779383 9.248298440472038 17.653875583720236 0 0 0
89 1 2.842489031401868 13.63509418591027 16.089356029510324 0 0 0
125 1 4.323001058619729 14.926121776263358 17.392801298580686 0 0 0
222 1 8.168799443406805 13.666281936578821 16.041032562470246 0 0 0
217 1 9.448941868283008 14.94672638350787 17.55225312477533 0 0 0
345 1 15.001816587800944 14.908975725183534 17.46043954236876 0 0 0
350 1 13.782968818573497 13.550838333372806 16.278930395524824 0 0 0
478 1 19.15386259205662 13.561979331974772 16.213489215676 0 0 0
473 1 20.363306804794885 14.812178885061183 17.892142641242767 0 0 0
127 1 1.1129519222049427 17.775259531165467 17.63225773571151 0 0 0
124 1 21.699544542096085 16.22008370049646 16.317265528759584 -1 0 0
252 1 5.53450446985088 16.434582944086177 16.11176575698391 0 0 0
218 1 6.880630694058533 17.777464799129184 17.481067581215605 0 0 0
380 1 11.052400800941642 16.369793532425057 16.55216003873178 0 0 0
383 1 12.504007897420705 17.635171057416724 17.60995938705884 0 0 0
508 1 16.46123769919334 16.205112613867623 16.09712725141681 0 0 0
511 1 17.48321435289922 17.53528674336138 17.72314092170797 0 0 0
126 1 2.6459959521953733 19.098042203151277 16.398123051098654 0 0 0
28 1 0.02691807634709906 21.628242988287283 16.222816887132264 0 -1 0
121 1 4.194408174517489 20.492490938631168 17.59532076052349 0 0 0
152 1 8.354099661682433 19.062409864196013 16.316318230138517 0 -1 0
249 1 11.117107732708956 0.010093864561287802 16.264631615523992 0 1 0
284 1 9.69041132802662 20.56693329996775 17.564549565084054 0 -1 0
382 1 13.708118505111088 18.904363850014114 16.19867714639392 0 0 0
377 1 14.981460873561486 20.549918814112043 17.726009248978805 0 0 0
412 1 16.2454983078954 21.754800414799725 16.31615373047573 0 -1 0
510 1 18.805752809709386 18.88693827305174 16.25471937188417 0 0 0
505 1 20.29319133080251 20.301997851580076 17.549703846283585 0 0 0
154 1 5.620238621183169 2.644844893330891 19.146732861656925 0 0 0
27 1 4.319761577665077 1.2472347919924212 20.601531335602036 0 0 0