LAMMPS (10 Sep 2025)
OMP_NUM_THREADS environment is not set. Defaulting to 1 thread.
  using 1 OpenMP thread(s) per MPI task
Loaded 1 plugins from C:\Users\lmike\AppData\Local\LAMMPS 64-bit 10Sep2025 with GUI\plugins
# LAMMPS input generated from LammpsInputFile with pymatgen v2025.10.7

# STYLES
units metal
atom_style atomic

# SET UP CALCULATION
read_data starting_config.dat
Reading data file ...
  orthogonal box = (0 0 0) to (21.781566 21.781566 21.781566)
  1 by 1 by 1 MPI processor grid
  reading atoms ...
  513 atoms
  read_data CPU = 0.002 seconds
pair_style sw
pair_coeff * * Si.sw Si
Reading sw potential file Si.sw with DATE: 2007-06-11
velocity all create 1000 5202194

# CALCULATION PARAMETERS
fix f1 all nvt temp 1000.0 1000.0 $(100.0*dt)
fix f1 all nvt temp 1000.0 1000.0 0.10000000000000000555
thermo 100000
thermo_style custom step temp press spcpu cpuremain

# RUN CALC AND WRITE OUTPUTS
dump d1 all custom 100 state_dump id type x y z vx vy vz
run 10000000
Neighbor list info ...
  update: every = 1 steps, delay = 0 steps, check = yes
  max neighbors/atom: 2000, page size: 100000
  master list distance cutoff = 5.77118
  ghost atom cutoff = 5.77118
  binsize = 2.88559, bins = 8 8 8
  1 neighbor lists, perpetual/occasional/extra = 1 0 0
  (1) pair sw, perpetual
      attributes: full, newton on
      pair build: full/bin/atomonly
      stencil: full/bin/3d
      bin: standard
Per MPI rank memory allocation (min/avg/max) = 3.119 | 3.119 | 3.119 Mbytes
   Step          Temp          Press          S/CPU         CPULeft    
         0   1000           7296.0412      0              0            
    100000   1027.5402      6429.0886      677.24423      14618.065    
    200000   1040.9464      5214.9436      531.83404      16448.604    
    300000   1031.6515      5326.4832      718.53776      15353.72     
    400000   1041.6022      5307.8958      639.03328      15152.249    
    500000   978.0922       4556.8393      439.4506       16319.111    
    600000   1045.5917      5063.7717      544.63977      16332.628    
    700000   989.5651       4839.5279      547.92935      16275.179    
    800000   1008.5255      5059.6093      551.60793      16172.469    
    900000   967.82432      4901.2629      558.32781      16030.235    
   1000000   963.87657      4247.3433      554.38371      15892.095    
   1100000   1106.5087      5377.7295      547.69786      15764.091    
   1200000   964.22589      6062.5824      559.73625      15598.193    
   1300000   1080.5687      7045.3361      561.48178      15426.616    
   1400000   992.21555      5696.2476      551.82547      15273.251    
   1500000   1001.188       4545.8368      538.44339      15141.695    
   1600000   998.65646      5433.6106      547.73995      14986.819    
   1700000   1004.5119      5641.5518      549.13568      14826.42     
   1800000   1031.4424      4634.9865      548.0685       14665.224    
   1900000   966.66114      4682.1284      540.86921      14512.144    
   2000000   1007.3189      5801.907       562.12127      14327.922    
   2100000   1008.8075      5575.0447      552.82717      14155.555    
   2200000   959.81554      4496.2752      539.32232      13998.472    
   2300000   1002.0226      5278.1139      558.75825      13817.332    
   2400000   1053.5072      5093.8035      545.99203      13649.625    
   2500000   1036.2877      5407.7484      545.39686      13481.282    
   2600000   987.5393       5466.1269      524.80636      13332.259    
   2700000   952.02845      4870.4296      551.7673       13154.987    
   2800000   1031.8536      5996.6293      562.19474      12968.787    
   2900000   1006.7702      4409.3801      561.09016      12784.02     
   3000000   984.71301      4359.9521      538.27417      12617.315    
   3100000   986.30177      4844.6369      544.2325       12444.853    
   3200000   1041.1922      5352.3088      544.14179      12271.75     
   3300000   977.06363      5327.2716      543.09949      12098.717    
   3400000   959.27303      4870.1463      545.03882      11923.76     
   3500000   1024.6042      5356.5831      534.5456       11755.004    
   3600000   981.8959       6316.6843      551.04809      11575.271    
   3700000   975.34277      5549.019       540.65475      11401.384    
   3800000   980.60125      4613.6784      552.39196      11220.502    
   3900000   969.54817      4620.8294      553.36045      11039.117    
   4000000   962.25349      4905.2549      538.77818      10865.101    
   4100000   997.36297      5335.3929      532.88133      10693.477    
   4200000   956.54685      4900.2638      547.72566      10514.065    
   4300000   1022.0926      5518.2109      543.33458      10336.462    
   4400000   961.72982      4907.9744      531.19792      10163.918    
   4500000   1014.5334      5781.0763      531.89045      9990.3762    
   4600000   957.0743       4871.9722      543.7657       9811.3855    
   4700000   1011.4387      5733.5867      551.14621      9629.4087    
   4800000   972.90251      5285.8934      556.18742      9445.6727    
   4900000   1068.9073      5850.442       532.94767      9270.2577    
   5000000   980.58488      5845.3616      533.0028       9094.3345    
   5100000   919.41083      4615.6116      558.15923      8909.8283    
   5200000   1059.1993      5288.4329      534.01971      8733.0035    
   5300000   1018.5432      4338.5945      556.69413      8549.0212    
   5400000   1048           5151.4948      538.92208      8370.2462    
   5500000   982.09751      5034.4502      545.94667      8189.2713    
   5600000   1011.5504      4962.7395      543.51709      8008.8613    
   5700000   1018.9741      4873.3574      541.42747      7828.8615    
   5800000   1010.719       5793.2859      537.22294      7649.7465    
   5900000   1004.257       5222.1681      542.62007      7469.1066    
   6000000   975.24304      5174.6898      530.64617      7291.1174    
   6100000   1077.6088      6922.5146      537.50283      7111.2482    
   6200000   961.07254      5310.127       539.18053      6930.8251    
   6300000   976.80111      5488.4814      539.14384      6750.2492    
   6400000   1021.6302      4762.5214      543.26495      6568.7286    
   6500000   1057.2803      5373.1377      548.23999      6386.2301    
   6600000   1024.6379      5378.1058      546.66798      6204.0047    
   6700000   1011.6577      5293.7889      552.23587      6020.85      
   6800000   1102.0363      5967.7362      543.07413      5839.1939    
   6900000   943.20447      3818.1054      540.68263      5657.8317    
   7000000   1004.6         5325.7978      543.95811      5475.8897    
   7100000   999.30391      5101.3771      536.80792      5294.8945    
   7200000   1001.0509      5713.6222      549.51107      5112.0776    
   7300000   951.7379       4084.5015      518.35117      4933.3297    
   7400000   962.83569      5691.4463      536.38399      4751.92      
   7500000   1032.5159      5064.8853      537.77441      4570.2157    
   7600000   981.94732      4658.2623      531.0716       4389.1407    
   7700000   1024.6274      5982.053       544.58362      4206.4826    
   7800000   1054.1881      4938.6498      535.79325      4024.6493    
   7900000   1052.4379      6260.3669      540.88509      3842.2273    
   8000000   980.75114      5884.9026      542.9863       3659.565     
   8100000   966.97497      4660.0252      558.52114      3475.664     
   8200000   934.589        5124.067       546.87517      3292.7184    
   8300000   1062.4077      5308.5594      558.36171      3109.0044    
   8400000   1013.5449      4568.4667      551.16724      2925.8457    
   8500000   1042.9657      4598.4967      545.26487      2743.0742    
   8600000   1012.6691      4555.6321      539.19336      2560.6243    
   8700000   1048.3912      5607.1749      551.21504      2377.5008    
   8800000   977.75537      5029.3567      534.3115       2195.1986    
   8900000   1006.2705      5490.8601      540.37776      2012.5278    
   9000000   1032.9812      6256.2706      531.74987      1830.1375    
   9100000   939.64946      4336.6277      545.18874      1647.1642    
   9200000   983.04966      5819.0389      532.27577      1464.5681    
   9300000   1080.0987      4870.8653      549.25798      1281.4212    
   9400000   1017.5329      6062.8975      543.0758       1098.4298    
   9500000   1011.1146      6085.7561      551.27601      915.27001    
   9600000   1007.3302      5590.6583      551.28644      732.14684    
   9700000   973.70359      5826.8769      549.575        549.07679    
   9800000   959.35081      4178.7553      553.36481      366.00399    
   9900000   997.36349      5072.7414      562.94162      182.94782    
  10000000   984.42375      4882.7598      566.1643       0            
Loop time of 18288.5 on 1 procs for 10000000 steps with 513 atoms

Performance: 47.243 ns/day, 0.508 hours/ns, 546.793 timesteps/s, 280.505 katom-step/s
99.5% CPU use with 1 MPI tasks x 1 OpenMP threads

MPI task timing breakdown:
Section |  min time  |  avg time  |  max time  |%varavg| %total
---------------------------------------------------------------
Pair    | 18009      | 18009      | 18009      |   0.0 | 98.47
Neigh   | 1.8903     | 1.8903     | 1.8903     |   0.0 |  0.01
Comm    | 44.966     | 44.966     | 44.966     |   0.0 |  0.25
Output  | 150.28     | 150.28     | 150.28     |   0.0 |  0.82
Modify  | 65.584     | 65.584     | 65.584     |   0.0 |  0.36
Other   |            | 16.47      |            |       |  0.09

Nlocal:            513 ave         513 max         513 min
Histogram: 1 0 0 0 0 0 0 0 0 0
Nghost:           1450 ave        1450 max        1450 min
Histogram: 1 0 0 0 0 0 0 0 0 0
Neighs:              0 ave           0 max           0 min
Histogram: 1 0 0 0 0 0 0 0 0 0
FullNghs:        18230 ave       18230 max       18230 min
Histogram: 1 0 0 0 0 0 0 0 0 0

Total # of neighbors = 18230
Ave neighs/atom = 35.536062
Neighbor list builds = 2510
Dangerous builds = 0
write_data FINAL_STRUCTURE
System init for write_data ...
Total wall time: 5:04:48
