LAMMPS (10 Sep 2025)
OMP_NUM_THREADS environment is not set. Defaulting to 1 thread.
  using 1 OpenMP thread(s) per MPI task
Loaded 1 plugins from C:\Users\lmike\AppData\Local\LAMMPS 64-bit 10Sep2025 with GUI\plugins
# LAMMPS input generated from LammpsInputFile with pymatgen v2025.10.7

# STYLES
units metal
atom_style atomic

# SET UP CALCULATION
read_data starting_config.dat
Reading data file ...
  orthogonal box = (0 0 0) to (21.77481 21.77481 21.77481)
  1 by 1 by 1 MPI processor grid
  reading atoms ...
  513 atoms
  read_data CPU = 0.002 seconds
pair_style sw
pair_coeff * * Si.sw Si
Reading sw potential file Si.sw with DATE: 2007-06-11
velocity all create 1000 6130258

# CALCULATION PARAMETERS
fix f1 all nvt temp 1000.0 1000.0 $(100.0*dt)
fix f1 all nvt temp 1000.0 1000.0 0.10000000000000000555
thermo 100000
thermo_style custom step temp press spcpu cpuremain

# RUN CALC AND WRITE OUTPUTS
dump d1 all custom 100 state_dump id type x y z vx vy vz
run 10000000
Neighbor list info ...
  update: every = 1 steps, delay = 0 steps, check = yes
  max neighbors/atom: 2000, page size: 100000
  master list distance cutoff = 5.77118
  ghost atom cutoff = 5.77118
  binsize = 2.88559, bins = 8 8 8
  1 neighbor lists, perpetual/occasional/extra = 1 0 0
  (1) pair sw, perpetual
      attributes: full, newton on
      pair build: full/bin/atomonly
      stencil: full/bin/3d
      bin: standard
Per MPI rank memory allocation (min/avg/max) = 3.119 | 3.119 | 3.119 Mbytes
   Step          Temp          Press          S/CPU         CPULeft    
         0   1000           8251.0866      0              0            
    100000   949.51819      6435.8267      895.01391      11061.281    
    200000   986.08788      6168.1919      903.59479      10897.56     
    300000   934.86667      5078.3947      850.6406       10991.964    
    400000   1017.4715      7149.8855      845.68747      10996.911    
    500000   988.27093      6396.7271      823.94966      11011.854    
    600000   1044.0128      6357.6376      778.13233      11093.318    
    700000   987.99428      6147.7512      727.05572      11234.734    
    800000   1013.1081      5746.5136      781.08577      11196.999    
    900000   1002.0092      6324.4995      895.61261      10973.665    
   1000000   975.38666      4645.448       811.08205      10877.396    
   1100000   937.32371      5551.3747      900.53414      10677.126    
   1200000   965.68564      5959.3602      894.43126      10497.283    
   1300000   963.33326      5392.0161      812.69436      10403.16     
   1400000   1013.5158      5959.0842      830.47147      10288.725    
   1500000   1015.9017      6395.4897      799.53345      10199.896    
   1600000   1050.0497      6909.5305      772.37665      10129.624    
   1700000   1026.8267      6546.3277      804.48929      10027.155    
   1800000   987.91033      5027.9349      800.67435      9924.9581    
   1900000   927.47788      6219.45        807.56193      9815.8309    
   2000000   1060.9319      6235.5549      829.97812      9691.8558    
   2100000   958.69583      5838.097       816.00014      9575.9773    
   2200000   938.92547      5165.7378      799.24013      9468.6036    
   2300000   982.05519      5244.1097      823.83356      9347.1824    
   2400000   952.06846      6275.4154      809.92142      9232.3669    
   2500000   999.00145      6720.7626      798.51802      9122.1489    
   2600000   1020.6553      6302.628       799.92778      9010.1477    
   2700000   974.06292      6033.6067      809.95497      8892.9985    
   2800000   976.20405      6313.2149      798.96681      8779.7645    
   2900000   985.71755      6273.4765      819.3517       8658.0842    
   3000000   1031.8495      6421.2309      823.57254      8534.9199    
   3100000   969.27354      5701.7723      801.45797      8419.3252    
   3200000   1025.1377      5844.6647      834.35349      8292.7034    
   3300000   956.43239      5274.4843      815.04464      8172.2567    
   3400000   1072.4688      6666.6603      807.7701       8053.8227    
   3500000   1062.359       7227.4967      817.28918      7932.4044    
   3600000   986.41364      5742.8754      790.95163      7818.1771    
   3700000   1071.7393      7338.5346      801.50345      7700.4562    
   3800000   981.77181      5464.4063      820.65492      7577.614     
   3900000   1015.579       6295.6812      811.73199      7456.9175    
   4000000   1050.8018      6324.2884      796.45924      7339.6397    
   4100000   998.11049      5898.2175      825.22835      7215.6593    
   4200000   1051.3162      6996.2004      804.17491      7096.1934    
   4300000   1003.3834      6393.3025      800.96365      6977.1611    
   4400000   1046.7075      6751.1815      811.99922      6855.7048    
   4500000   979.38249      4723.9596      799.47739      6736.5307    
   4600000   945.85391      5022.2905      839.19515      6610.1502    
   4700000   1053.5806      7592.0281      819.01315      6487.3882    
   4800000   967.58646      4900.6882      813.10735      6365.6145    
   4900000   1020.5275      6167.8355      823.38052      6242.1943    
   5000000   1046.1066      5509.4845      802.98756      6121.9373    
   5100000   954.94012      6607.3792      818.15231      5999.2948    
   5200000   995.64292      5990.5132      822.12812      5876.1226    
   5300000   1008.1802      5525.5676      799.14178      5756.1111    
   5400000   1011.9384      5446.1855      790.99771      5637.0073    
   5500000   978.13261      5871.7475      807.49819      5515.5237    
   5600000   1016.3369      6503.2524      800.13896      5394.8509    
   5700000   1016.2437      6369.7523      800.68599      5273.9627    
   5800000   1011.2436      6397.6118      825.22496      5150.247     
   5900000   1017.443       6730.4067      813.82279      5027.7972    
   6000000   975.2301       5980.1186      827.73159      4903.9566    
   6100000   968.42342      5894.5872      826.67513      4780.314     
   6200000   997.02853      7057.7922      811.61693      4658.1333    
   6300000   979.25747      6202.0661      811.52637      4535.928     
   6400000   942.31545      5799.2785      824.62078      4412.5901    
   6500000   991.86971      6632.5003      792.80331      4291.9366    
   6600000   1033.1419      5934.4849      794.9987       4170.9375    
   6700000   965.83764      6795.0427      831.55428      4047.072     
   6800000   969.06161      5495.3525      805.46166      3925.1458    
   6900000   1002.1939      5652.1506      815.69683      3802.4553    
   7000000   1085.9903      6227.2592      829.53457      3678.891     
   7100000   990.36783      6835.0843      807.2005       3556.774     
   7200000   1002.3288      6516.4575      824.8592       3433.5765    
   7300000   984.25681      5417.3818      826.93504      3310.3203    
   7400000   1010.056       6260.5322      808.67998      3188.0861    
   7500000   954.09626      5841.2103      823.76006      3065.0594    
   7600000   957.84546      5986.8494      809.60277      2942.7459    
   7700000   1029.769       6333.0869      829.98736      2819.4951    
   7800000   950.68058      5473.7743      813.9109       2696.9864    
   7900000   932.53122      4501.2073      834.99113      2573.6443    
   8000000   961.36276      4723.33        810.16291      2451.3091    
   8100000   1030.5021      5949.2045      809.89839      2328.9564    
   8200000   998.56075      5948.998       810.89092      2206.5432    
   8300000   998.99496      6577.9719      836.95014      2083.3216    
   8400000   1008.4519      6927.5217      842.23184      1960.0464    
   8500000   1016.6193      6838.3262      848.14216      1836.7321    
   8600000   1096.6597      7387.1919      813.16559      1714.3691    
   8700000   1025.2814      7199.4622      829.92066      1591.6211    
   8800000   1073.7635      7570.4389      850.68184      1468.5233    
   8900000   1008.5376      5525.1641      826.17623      1345.981     
   9000000   1018.1171      6049.6998      816.89706      1223.625     
   9100000   1051.4163      6281.2946      863.0576       1100.6201    
   9200000   988.24671      6212.507       835.00202      978.10887    
   9300000   967.33783      4986.7541      848.76188      855.5107     
   9400000   998.82554      6314.9514      847.78869      733.02285    
   9500000   984.09671      5912.9421      856.3446       610.56842    
   9600000   1036.8388      6329.878       793.18587      488.61974    
   9700000   1045.5271      5870.6236      875.85805      366.21797    
   9800000   955.47197      5194.1541      885.12025      243.95973    
   9900000   1033.9507      6300.1586      892.62888      121.87935    
  10000000   999.51536      6342.6157      876.32945      0            
Loop time of 12180.2 on 1 procs for 10000000 steps with 513 atoms

Performance: 70.935 ns/day, 0.338 hours/ns, 821.007 timesteps/s, 421.176 katom-step/s
99.4% CPU use with 1 MPI tasks x 1 OpenMP threads

MPI task timing breakdown:
Section |  min time  |  avg time  |  max time  |%varavg| %total
---------------------------------------------------------------
Pair    | 11977      | 11977      | 11977      |   0.0 | 98.33
Neigh   | 1.5756     | 1.5756     | 1.5756     |   0.0 |  0.01
Comm    | 29.816     | 29.816     | 29.816     |   0.0 |  0.24
Output  | 113.3      | 113.3      | 113.3      |   0.0 |  0.93
Modify  | 47.252     | 47.252     | 47.252     |   0.0 |  0.39
Other   |            | 11.36      |            |       |  0.09

Nlocal:            513 ave         513 max         513 min
Histogram: 1 0 0 0 0 0 0 0 0 0
Nghost:           1448 ave        1448 max        1448 min
Histogram: 1 0 0 0 0 0 0 0 0 0
Neighs:              0 ave           0 max           0 min
Histogram: 1 0 0 0 0 0 0 0 0 0
FullNghs:        18308 ave       18308 max       18308 min
Histogram: 1 0 0 0 0 0 0 0 0 0

Total # of neighbors = 18308
Ave neighs/atom = 35.688109
Neighbor list builds = 2628
Dangerous builds = 0
write_data FINAL_STRUCTURE
System init for write_data ...
Total wall time: 3:23:00
