LAMMPS data file via write_data, version 10 Sep 2025, timestep = 10000000, units = metal

511 atoms
1 atom types

0 21.754625 xlo xhi
0 21.754625 ylo yhi
0 21.754625 zlo zhi

Masses

1 28.085

Atoms # atomic

7 1 1.4280152497786627 1.3078721949202883 1.4717699600950738 0 0 0
8 1 2.7502026495007286 21.604474965279014 2.8027055363150692 0 -1 0
2 1 0.030310107897365213 2.7758496483322745 2.8518863004171675 0 0 0
130 1 5.415363918308773 2.834736131337278 2.9589100485123616 0 0 0
135 1 6.662804506108073 1.5636642729713854 1.5383682385848076 0 0 0
134 1 8.147737383891876 2.7513840814927084 0.24188464063925635 0 0 0
262 1 12.029568352530305 1.3724048830655355 1.4653474905486246 0 0 0
257 1 10.921354051508722 2.646919397599363 2.9599070615628023 0 0 0
259 1 10.827291162051088 21.647846043546682 0.0586731617792354 0 -1 0
261 1 13.35981590618919 2.8879578951867435 0.11159841169135098 0 0 0
385 1 16.4013839212931 2.903140430880084 2.7131141069401927 0 0 0
390 1 17.677516522372596 1.5162861219946044 1.383414785907158 0 0 0
40 1 2.8188890036451553 5.537546181419325 2.674857336644949 0 0 0
1 1 4.208105573801937 4.142602796976062 1.5020470028054345 0 0 0
164 1 5.5032966384648425 5.591828346882639 0.2677985870716014 0 0 0
168 1 8.07849254629988 5.5461391069708235 2.8781549386666834 0 0 0
129 1 9.634627440766605 4.06044158388616 1.575248171379041 0 0 0
291 1 10.75570718872396 5.379907607466609 0.05532257312203729 0 0 0
295 1 13.528237992613763 5.458914682737226 2.8825163941352843 0 0 0
419 1 14.763814632852698 4.180644379006964 1.4927116975976846 0 0 0
422 1 16.256675562337445 5.402430771844161 0.10983823104564376 0 0 0
384 1 20.340812151769434 4.1512879752535525 1.6074402366789198 0 0 0
423 1 18.82078505916268 5.480289114870423 2.94886510948459 0 0 0
36 1 21.659515615344606 5.575799253597762 0.23386743264728196 -1 0 0
39 1 1.4379650645759001 6.768119946243315 1.338584699363972 0 0 0
38 1 2.9002269719388023 8.135568977143961 0.14004773128775644 0 0 0
162 1 6.564221868430578 7.048178125278147 1.7522156638773108 0 0 0
33 1 4.416321404013856 9.195058892861452 1.5370432317302258 0 0 0
167 1 7.973672388865464 8.179571232598315 0.1585776859498331 0 0 0
289 1 10.773275982417763 8.158562166546183 2.665320284790662 0 0 0
294 1 12.14468956497981 6.794048744576934 1.4199767840213273 0 0 0
316 1 13.547586080155952 8.085999885089114 0.07453740781924863 0 0 1
288 1 16.351516830591613 8.23135276723666 2.797446394897547 0 0 0
417 1 17.621346630075315 6.879989801549527 1.4247102877850915 0 0 0
34 1 0.16804065175305283 8.234181615615997 2.6859284519279236 0 0 0
72 1 3.0887891368604206 10.779271948261904 2.5448547106895734 0 0 0
71 1 1.4582385053431735 12.18801174244582 1.290082119991913 0 0 0
68 1 21.7260742620687 10.795326864189052 0.0729109002211271 -1 0 0
200 1 6.81697948088666 12.186631804077996 1.441895533448827 0 0 0
161 1 8.132118606519617 10.645395500670077 2.797767884475599 0 0 0
166 1 9.462652868241427 9.415351606320083 1.4132346872727946 0 0 0
321 1 12.325270631328499 12.278480293558854 1.542572587325016 0 0 0
293 1 14.967871571029292 9.533935760287164 1.3817264234986364 0 0 0
326 1 13.744894470340414 10.824942320253296 2.74197920595294 0 0 0
327 1 16.252661162779415 10.910199972710368 0.0042675409222212605 0 0 0
416 1 20.30801834275106 9.374225179051429 1.4366226512592064 0 0 0
455 1 19.08074184733038 10.879354845433765 2.8283225465454134 0 0 0
66 1 21.589715977425527 13.413032050769312 2.6440123727913454 -1 0 0
70 1 2.6885565988724203 13.624007178424712 21.745032073064632 0 0 -1
65 1 4.073090597529857 15.15313290483313 1.5154917796941525 0 0 0
194 1 5.53451725899994 13.593424042122628 2.7222917773787842 0 0 0
193 1 9.414380423585893 15.01616289027445 1.4846689409103677 0 0 0
324 1 10.879689772608039 13.561812825768818 2.7607921118452343 0 0 0
320 1 14.892101329318864 15.074800990539414 1.5081724931066502 0 0 0
325 1 13.471152627685564 13.663926896142325 0.1297288086439993 0 0 0
454 1 17.72280275011378 12.325990098891925 1.4287441830793446 0 0 0
449 1 16.185701878689148 13.64426239093312 2.8261109303635705 0 0 0
448 1 20.300493653833588 14.961849630652182 1.2693215285205202 0 0 0
103 1 1.097164246730131 17.67826719513501 1.4605892990121658 0 0 0
104 1 2.4648303471024877 16.36359623509306 2.877175359837656 0 0 0
100 1 21.708586388995368 16.341130602376072 21.671174108727566 -1 0 -1
231 1 6.799950269287762 17.71380764880419 1.2949967832074218 0 0 0
232 1 8.011249494826918 16.268177265111923 2.787331989627041 0 0 0
358 1 12.027645246971328 17.667189503979145 1.4280797523628148 0 0 0
359 1 13.403688868376143 16.329907636455943 2.7913256636830472 0 0 0
486 1 17.574428754694928 17.75284425320715 1.2265233117029544 0 0 0
487 1 18.98838516871937 16.25547827956944 2.6868116859158038 0 0 0
4 1 0.0956592265288693 0.010126256013023749 0.024167577873882157 0 0 0
98 1 21.58775267991402 19.144606822229914 2.7798688760147656 -1 0 0
132 1 5.4777174398321025 0.11494214782472767 0.11549833943824432 0 0 0
97 1 4.105512408789137 20.424058875075712 1.332854661540979 0 0 0
226 1 5.336839174747068 18.873404887530533 2.7137265785406277 0 0 0
136 1 8.13581886626573 0.014160059847274198 2.8513009731299124 0 0 0
230 1 7.961417581345023 19.16462551410296 21.50193241974458 0 0 -1
225 1 9.569769654831974 20.141891511505406 1.414448490113938 0 0 0
353 1 10.954671954650191 19.004123312271396 2.910990996126323 0 0 0
263 1 13.57729071710011 21.735221279155727 2.615411412712192 0 -1 0
352 1 15.021072946686145 20.369291663526923 1.3710763260837633 0 0 0
357 1 13.435284274793716 19.05708504599677 0.0414289755782586 0 0 0
481 1 16.318752304098787 19.030821181114167 2.701075656650715 0 0 0
387 1 16.362393879897784 0.19827031033024056 0.018631321000980233 0 0 0
391 1 18.951257817085413 0.06840241947271508 2.765285230897267 0 0 0
480 1 20.344650287552053 20.489924784073512 1.3642023370858172 0 0 0
485 1 19.15394521389448 19.14765001371565 21.69826778443415 0 0 -1
14 1 2.664481491618656 2.7691433251584816 5.579330293603873 0 0 0
3 1 3.960491174303114 1.3854431956966056 4.229058025462566 0 0 0
142 1 8.195246685844157 2.7938416801543107 5.590648677038903 0 0 0
131 1 9.498639012672491 1.3116550858834704 4.196902774542441 0 0 0
267 1 10.823542713387052 21.74820284602788 5.770278754463482 0 -1 0
258 1 14.855836838890834 1.4029505555260222 4.116944250931439 0 0 0
269 1 13.650358357213193 2.7781573528246826 5.59005984013974 0 0 0
386 1 20.385591538096 1.34874978466286 4.106098410053395 0 0 0
397 1 18.954281857924467 2.648229341221598 5.6131474939716295 0 0 0
5 1 1.4027110518547279 4.154392894581113 4.074498442501638 0 0 0
172 1 5.3744471898640995 5.6065573767909385 5.363654006892982 0 0 0
133 1 6.778039896982087 4.07445932715192 4.260935245095565 0 0 0
299 1 10.794819551611198 5.48898040644196 5.63428213482621 0 0 0
260 1 12.236946714032936 4.126653435084617 4.4143951123164875 0 0 0
388 1 17.606541041048075 4.016084232051354 4.341353648453463 0 0 0
427 1 16.225632057837604 5.53579545351707 5.581648902876677 0 0 0
44 1 0.08544972350550495 5.470608930990149 5.461491483938462 0 0 0
46 1 2.9565577037118103 8.24957943255936 5.38804715284475 0 0 0
35 1 4.423420495635906 7.131935059817977 3.6543009891114973 0 0 0
174 1 7.83241381981903 8.32661454062668 5.4669597009237645 0 0 0
165 1 6.491090203447003 9.171634407712418 3.7048747822444015 0 0 0
163 1 9.438800139295433 7.020040771666575 4.303101255531212 0 0 0
290 1 15.070875583177948 6.8792112888882295 4.155811899349472 0 0 0
301 1 13.69539703905808 8.157864032220244 5.448819912497619 0 0 0
418 1 20.412954439453348 6.723540073006475 4.161573577546813 0 0 0
429 1 19.138686799294593 8.096739632285285 5.549770833647649 0 0 0
37 1 1.638141673255657 9.692282719512978 3.8160132030054936 0 0 0
76 1 21.736096577203163 10.835380612732333 5.221167465258276 -1 0 0
204 1 5.459345185252683 10.696882419225526 5.25191091043378 0 0 0
67 1 4.150348966408859 12.26693857398019 4.041385661565843 0 0 0
331 1 10.872737906354603 10.774844740590167 5.393695137354915 0 0 0
292 1 12.239006186278544 9.457440212267587 3.8757561349659824 0 0 0
322 1 15.02194054319337 12.213594355666991 4.213105754407393 0 0 0
420 1 17.673051619821127 9.469852576437606 4.151236293298708 0 0 0
459 1 16.381986423375228 10.93671175115487 5.542875721958119 0 0 0
450 1 20.195343194410206 12.321953848027404 4.10171936468975 0 0 0
69 1 1.2615942460096465 14.906614406440507 4.002542749850587 0 0 0
78 1 2.7380525963393425 13.598507034706435 5.430423182712516 0 0 0
197 1 6.895370959193244 14.947354210063892 4.20653176925925 0 0 0
206 1 8.115243811193787 13.526973599336612 5.567491185408936 0 0 0
195 1 9.426124126170347 12.099410244320321 4.082160440738247 0 0 0
363 1 12.085300704182972 14.843880401301174 4.212307287287369 0 0 0
333 1 13.545550915944247 13.53251713952638 5.414035649930938 0 0 0
452 1 17.613646444839535 15.077229669895512 4.138204784651435 0 0 0
461 1 19.040096073500848 13.696554440618367 5.598762162959349 0 0 0
236 1 4.016926616644934 17.60547029941284 3.9828007481077243 0 0 0
239 1 5.32566431133406 16.34983811364492 5.438690930683255 0 0 0
227 1 9.50810040456984 17.551295707592754 4.174031426046129 0 0 0
366 1 10.563199211742546 16.071391773786036 5.673308123255964 0 0 0
354 1 14.79794244316604 17.71337727426888 4.081144007238538 0 0 0
491 1 16.308027879400484 16.37493593174736 5.452813775698488 0 0 0
108 1 0.02638979671177566 16.357814562589674 5.46005837136277 0 0 0
482 1 20.200686392157 17.725994374884447 4.190170637169717 0 0 0
12 1 0.018794439994843044 21.73594257120967 5.551129662603305 0 -1 0
99 1 2.741201994069433 18.998517166042983 5.382592107173099 0 0 0
101 1 1.3025899143758692 20.27228884421937 4.140446965307407 0 0 0
140 1 5.298571414451955 21.694424531855216 5.468099908466884 0 -1 0
229 1 6.694909733942978 20.34909659612748 4.100108609907604 0 0 0
233 1 8.120665555710103 18.969273446653986 5.466405264311421 0 0 0
356 1 12.29328631095656 20.518698982132857 4.123495979009987 0 0 0
365 1 13.467372624061337 19.130837503485466 5.4470053412588415 0 0 0
395 1 16.229111797553045 21.65423404052796 5.37848427678231 0 -1 0
484 1 17.725807951934073 20.21783725764774 3.9768659786547103 0 0 0
493 1 19.06049618634638 19.109208234246115 5.584085593152824 0 0 0
15 1 1.2597668951950665 1.4582035978531311 6.909767494253745 0 0 0
16 1 2.593076530184541 0.08089279485680083 8.288346857464811 0 0 0
138 1 5.357026756880334 2.8464916853849767 8.189166545260322 0 0 0
143 1 6.745466664702118 1.2453791712550135 6.934317558523548 0 0 0
139 1 8.166822400882605 0.12585010725737145 8.382837644458206 0 0 0
265 1 10.845349896846763 2.7862781709383744 8.327080974598545 0 0 0
270 1 12.195274930973076 1.4873238260650745 6.847996749704413 0 0 0
271 1 13.65683658683872 0.15042325814489313 8.205570339194532 0 0 0
393 1 16.325468382399727 2.745217531832744 8.276917034180869 0 0 0
398 1 17.448663297380982 1.3345035681845119 6.845582381244258 0 0 0
10 1 0.05884551717740294 2.8123209365773283 8.327421342082289 0 0 0
48 1 2.8261455976894947 5.450318431742802 8.165980051257675 0 0 0
9 1 4.053921751792652 4.268280524337738 6.8431983453809195 0 0 0
176 1 8.165832203461521 5.471109369461869 8.221633121110667 0 0 0
137 1 9.52040944216118 4.057412717895073 7.0136982158823615 0 0 0
264 1 14.962575090119048 4.15320350123201 6.98649290583073 0 0 0
303 1 13.676559012324521 5.439387463395972 8.272391780074246 0 0 0
392 1 20.486155047684058 3.924511438792529 6.881756217011707 0 0 0
431 1 19.09915342338721 5.366208617841639 8.251383680437113 0 0 0
47 1 1.6257862473748166 6.800936153148397 6.642344590074993 0 0 0
170 1 5.438895657721628 8.13632080239755 8.093101771237531 0 0 0
175 1 6.741091278114297 6.782841035239693 6.885420701976936 0 0 0
297 1 10.852675705801213 8.078015005551041 8.082830422828954 0 0 0
302 1 12.411177871964771 6.728695450945197 6.783500764665174 0 0 0
425 1 16.436251779850625 8.166291116984528 8.097080984831846 0 0 0
430 1 17.816387606959918 6.611766602698334 6.798581959285416 0 0 0
42 1 0.08842118254161946 7.9495620946548815 8.226733757473022 0 0 0
80 1 2.7745606638979967 10.941800803811288 8.032655992452137 0 0 0
79 1 1.4811525350958898 12.158407919567578 6.727888570777347 0 0 0
41 1 4.139075365409962 9.429410051123657 6.741282996819162 0 0 0
208 1 8.267740363805038 10.787426508058378 8.177880913876304 0 0 0
207 1 6.630846938157969 12.092399545538024 6.837414329405933 0 0 0
169 1 9.572642337900659 9.454624620960052 6.794932135333253 0 0 0
334 1 12.143826699866565 12.148076197395541 6.729574377789822 0 0 0
296 1 15.003399011671897 9.449496740222042 6.788020563339614 0 0 0
335 1 13.653116183966604 10.878270881466213 7.961462505547259 0 0 0
462 1 17.631819394028952 12.353365525202229 6.862763271155499 0 0 0
424 1 20.466347845305037 9.388844613224466 6.733508779397353 0 0 0
463 1 19.03670904678229 10.918157107875581 8.074529977191084 0 0 0
74 1 0.11402239966877058 13.606400575469262 8.163609398261576 0 0 0
73 1 3.8616568909424784 14.999257400231098 6.635644929256461 0 0 0
202 1 5.391821999166589 13.635089373335441 8.06572661730946 0 0 0
201 1 9.429652888029393 14.794896913755569 7.149520314997918 0 0 0
329 1 10.858454165926364 13.475898008985569 8.23616426981188 0 0 0
328 1 14.809432100829433 15.063646257361661 6.855869810820225 0 0 0
457 1 16.079903713304173 13.655519530135152 8.156000372768608 0 0 0
456 1 20.479123349003846 14.992028858616276 6.9084513413986715 0 0 0
110 1 1.2933899003804383 17.748846713073956 6.804767956258217 0 0 0
112 1 2.6248314500464893 16.33407760436354 8.2100795670444 0 0 0
238 1 6.811987987291376 17.633112482783925 6.7661169377002635 0 0 0
240 1 8.073439679051065 16.378985610535405 8.357940146457766 0 0 0
361 1 12.103457576882732 17.76634930787807 6.831676984050682 0 0 0
367 1 13.427907675542967 16.437750536826805 8.15506564975808 0 0 0
494 1 17.616553918985527 17.768635178412314 6.899709145472896 0 0 0
495 1 19.09554563060804 16.28516849534782 8.206067534645355 0 0 0
234 1 5.343615599041899 19.06259172661097 8.138193830628246 0 0 0
105 1 3.955371096683893 20.40030305404474 6.841927873658588 0 0 0
144 1 9.326656973571621 20.368895839871215 6.913489782450416 0 -1 0
235 1 10.767487629527311 19.18208794344811 8.267426194255712 0 0 0
360 1 14.840135372466982 20.343943963833656 6.776917593499234 0 0 0
489 1 16.265183452975112 19.121978547232633 8.21655065309261 0 0 0
111 1 21.663493806896195 19.051220031811454 8.123645298070223 -1 0 0
488 1 18.894546176513796 0.0469661305303255 8.207530954259857 0 1 0
106 1 20.29390405612937 20.53853098884398 6.852657588572066 -1 0 0
23 1 2.6537248043145607 2.788989736617848 11.002078412752162 0 0 0
20 1 1.4559811744394486 1.3381516870250039 12.30027566232859 0 0 0
11 1 3.876069832668183 1.3343419954595415 9.597570554475464 0 0 0
148 1 5.421237298228628 0.14922326933601512 10.980326509150492 0 0 0
145 1 8.08960110976387 2.7046198106308927 10.968921982567846 0 0 0
151 1 6.781850900184946 1.4049948901219091 12.364050796722934 0 0 0
150 1 9.676360602457382 1.447575578652804 9.828730329476615 0 0 0
364 1 10.958579342056568 21.690629404563907 11.00115414927486 0 0 0
279 1 12.335245699751233 1.3257685751716466 12.279468268451794 0 0 0
266 1 14.93978967526996 1.487918107894958 9.660208597761274 0 0 0
277 1 13.586734083066933 2.678920235056889 11.020209132269562 0 0 0
406 1 17.66662033208874 1.2035886341123885 12.252314991251195 0 0 0
403 1 16.27722594654939 21.728725721689756 10.920802944807807 0 -1 0
394 1 20.436079251317185 1.2750514923888172 9.590460962863359 0 0 0
405 1 19.189283946260943 2.536535030187146 11.007220876222 0 0 0
13 1 1.4792040068096197 4.220131532125684 9.7109609003591 0 0 0
52 1 0.049197425004608775 5.353331724612383 11.01705617775914 0 0 0
17 1 5.221928738422932 5.268801959795948 10.893183755696478 0 0 0
22 1 4.0621033177914505 4.08335336041911 12.411544059452238 0 0 0
141 1 6.69027456839003 4.067753335827838 9.63924411533891 0 0 0
307 1 10.813962254357243 5.509127577582362 10.926021140285458 0 0 0
268 1 12.247289107525535 4.183628617397306 9.649506391281113 0 0 0
273 1 9.394897885947646 4.074406485833247 12.307843950174679 0 0 0
272 1 15.016310214682697 4.043021575519333 12.136774556639933 0 0 0
396 1 17.813026225244986 3.9819214234940454 9.574450634460572 0 0 0
435 1 16.332532192205736 5.40691890850522 10.801591491247041 0 0 0
400 1 20.489669260096914 3.8996727830333553 12.379284388309443 0 0 0
54 1 2.612929368011603 8.306680711624017 10.913099865483595 0 0 0
55 1 1.4259502848568806 6.770202872080804 12.436298036446683 0 0 0
43 1 4.154085807134591 6.870004193845644 9.495507547913732 0 0 0
182 1 8.140257081140092 8.106913052683266 10.82702660864967 0 0 0
180 1 6.590350657457244 6.8152532937896115 12.257989995245856 0 0 0
171 1 9.46469847567709 6.835214936763092 9.521199301532864 0 0 0
310 1 12.237350181069287 6.828647561756849 12.321740730848225 0 0 0
298 1 14.902974419328402 6.954634342250986 9.54842246479305 0 0 0
309 1 13.4941432562536 8.258813000847724 10.931961572171478 0 0 0
438 1 17.720729463387176 6.703105472745871 12.192728966379944 0 0 0
426 1 20.52191824779445 6.690499104511718 9.570690188063905 0 0 0
437 1 19.113764002441176 8.023152440049365 10.79008859633687 0 0 0
45 1 1.396121804540822 9.585363478728167 9.4337745294933 0 0 0
87 1 1.398574000576843 12.275225215597521 12.139117440330335 0 0 0
84 1 0.08071714573911085 10.811179488210762 10.859582196181114 0 0 0
75 1 3.9478688762790375 12.372962288318059 9.478082278166859 0 0 0
49 1 5.132195488555909 10.86761734664412 10.723904464072856 0 0 0
178 1 4.004563648510247 9.574129192006733 12.245814032629628 0 0 0
173 1 6.745555540125655 9.45719585524801 9.465029618864962 0 0 0
177 1 9.379884433085486 9.573047829174449 12.159869976899223 0 0 0
212 1 6.712726651883401 12.230142030164508 12.075866314224102 0 0 0
300 1 12.092959366052025 9.606734313805795 9.437002770944046 0 0 0
203 1 9.410658929464324 12.190558748748193 9.544563437443816 0 0 0
339 1 10.760351764988917 10.916138633280204 10.842425933306277 0 0 0
342 1 12.238502772464132 12.150295239168345 12.248137567285323 0 0 0
330 1 14.932087682848541 12.178919473936741 9.535800611664596 0 0 0
304 1 15.051246533259038 9.341378557825978 12.35114198583859 0 0 0
428 1 17.728530123018395 9.487446620065638 9.523451698420057 0 0 0
467 1 16.333072271027582 10.78489064167943 10.860857001396255 0 0 0
470 1 17.631183024776135 12.040119952449178 12.285923474567081 0 0 0
458 1 20.450494000410934 12.131327613106336 9.511858393345976 0 0 0
432 1 20.330019719136686 9.45058021420899 12.159116748438727 0 0 0
77 1 1.3083151239938866 14.97871452766592 9.534108029920576 0 0 0
86 1 2.7498883275832386 13.661338309908098 10.870406407183266 0 0 0
81 1 3.9489457106805235 15.026734912536575 12.087498502831641 0 0 0
205 1 6.755440407285757 15.021894155441545 9.610188597134547 0 0 0
214 1 8.191040336132458 13.701974863101032 10.842443626170187 0 0 0
332 1 12.192799456307007 15.03101316769463 9.505359656142582 0 0 0
337 1 9.475292034672163 15.010551338314611 12.16031766057059 0 0 0
341 1 13.548472008092162 13.572457749958705 10.847190365242081 0 0 0
336 1 14.842704509665658 14.934888069300749 12.29853170951835 0 0 0
460 1 17.669264801219263 14.895263170144982 9.419469899941467 0 0 0
469 1 19.017593684806805 13.398031061985954 10.851988948533728 0 0 0
464 1 20.25434727739475 15.0028297535215 12.073321520936606 0 0 0
119 1 1.3453456614529136 17.702753680221953 12.41380107369391 0 0 0
107 1 4.042449722454585 17.741670667435084 9.692940091267955 0 0 0
244 1 5.495207736690189 16.40880908046425 10.974853239055863 0 0 0
247 1 6.8628706994954465 17.750808289249058 12.35758200515902 0 0 0
246 1 9.633177186875576 17.826940036336957 9.672703381876445 0 0 0
209 1 10.995573464170041 16.396239107263376 11.007213205808029 0 0 0
371 1 12.432095834284494 17.76617764149786 12.263573927308514 0 0 0
362 1 14.92773119282558 17.52755991652344 9.49281070130392 0 0 0
499 1 16.33084390855611 16.24506878529279 10.802266676972014 0 0 0
502 1 17.665152417907986 17.619887788773248 12.1907256359619 0 0 0
490 1 20.297164576768782 17.83747498918284 9.527323145531144 0 0 0
116 1 0.0949032434537962 16.490249542711403 10.855718682702358 0 0 0
109 1 1.3646787941693597 20.274335131095263 9.636132656001788 0 0 0
118 1 2.789331368754847 19.11642985766427 11.133217264020812 0 0 0
113 1 4.13587568482559 20.637583474546638 12.366833013384078 0 0 0
237 1 6.611910096674476 20.48264929418677 9.712000019069023 0 0 0
241 1 8.26278984511073 19.143865824082962 11.029843211086888 0 0 0
275 1 9.56697917200196 20.57313285489742 12.305769454240018 0 -1 0
373 1 12.34372992966469 20.41826746680022 9.586710602364128 0 0 0
374 1 13.733902362783049 18.88269067258464 10.793779246273813 0 0 0
368 1 15.156165071469006 20.152211329838014 12.18885757645636 0 0 0
399 1 17.627468468240735 20.3156782043891 9.56490734063836 0 -1 0
496 1 21.703940453368983 21.626710349768906 11.005502294574603 0 0 0
492 1 19.065554710492602 19.032888651555748 10.969714191251347 0 0 0
19 1 3.9780243780808795 1.2669774805549483 15.108535193149407 0 0 0
146 1 5.455070389332814 2.817666867851109 13.71551906462976 0 0 0
152 1 8.2013997076274 0.08745225321121068 13.688748788160762 0 0 0
147 1 9.621720239146171 1.4239830839851815 14.966007918645817 0 0 0
278 1 10.930230330999247 2.665940982280419 13.639042480659326 0 0 0
401 1 15.081950720692998 1.233968951233173 14.898619112376005 0 0 0
404 1 16.37457700273322 2.6147720540185206 13.626728513346617 0 0 0
30 1 0.09059643885966295 2.5219299874480847 13.751655087802945 0 0 0
18 1 20.263957991417126 1.4240760350276838 15.01726226817179 -1 0 0
407 1 19.045385875455192 21.56544967956219 13.67881811005841 0 -1 0
56 1 2.6398770315730724 5.42251244125384 13.743575504433853 0 0 0
21 1 1.262473457319526 3.9932713644973035 15.11056859153284 0 0 0
149 1 6.807470597339991 4.125264908003835 15.017856860910165 0 0 0
184 1 8.180417362601046 5.488624268739 13.621859158994358 0 0 0
276 1 12.35498040346964 4.092100526356177 15.025867359817775 0 0 0
311 1 13.593930974652839 5.329705906492936 13.488755281793456 0 0 0
413 1 17.49227494430967 4.0220889708081495 14.934682924104044 0 0 0
439 1 18.956570993558874 5.412975197746939 13.562625220877477 0 0 0
183 1 5.274764898162903 8.35678263207872 13.657696125731082 0 0 0
51 1 4.027894423947316 6.851400071960258 15.000220607391999 0 0 0
179 1 9.55978226350129 6.876773704774635 14.969122168718094 0 0 0
305 1 10.885234507125851 8.299050886345153 13.58561860300612 0 0 0
306 1 14.976503169067847 6.677754407025528 14.882844183385147 0 0 0
433 1 16.500405879187717 7.997278132876748 13.613246005259708 0 0 0
50 1 21.613495047004854 8.166286130909862 13.704029259162246 -1 0 0
434 1 20.27355758633689 6.733873184462747 15.014464515937464 0 0 0
53 1 1.1950804721209838 9.691429647316886 14.981941224495793 0 0 0
88 1 2.646379401815412 10.954820550900823 13.572945992940816 0 0 0
83 1 4.098968366342933 12.259430405904391 14.845013267484017 0 0 0
181 1 6.772380767526099 9.586337429061507 15.05417478730064 0 0 0
215 1 8.051731259629214 10.980360840350459 13.560395368300776 0 0 0
216 1 9.500788370585518 12.383946102176129 14.88725999286224 0 0 0
308 1 12.090196423580812 9.491626702511821 14.934475438781568 0 0 0
343 1 13.518791565352327 10.8527249796118 13.676456310590119 0 0 0
338 1 14.930605368625313 12.310450132687865 15.017246383893944 0 0 0
436 1 17.57908017795352 9.478186678147067 15.021592961276735 0 0 0
471 1 19.066525245928986 10.741010345827492 13.526496796061933 0 0 0
466 1 20.29045972959878 12.335224490023089 14.873053113679404 0 0 0
85 1 1.30553806813665 14.831925787950082 14.87739415698256 0 0 0
82 1 21.643395186103955 13.680247701869382 13.429186838046293 -1 0 0
210 1 5.2644060241618575 13.556093214673245 13.369451303406322 0 0 0
213 1 6.728065434873741 14.91766837055465 14.67971024722844 0 0 0
211 1 10.940304189778676 13.615416655917384 13.590667831947014 0 0 0
340 1 12.100543096109087 15.019127432606757 15.091874476405108 0 0 0
465 1 16.299529506800592 13.551736368491271 13.690253755487197 0 0 0
468 1 17.6566115949168 14.98515154964748 14.889428946419635 0 0 0
120 1 2.7744565338642055 16.298586095215065 13.78219704138548 0 0 0
115 1 4.199479213375697 17.519739134314555 15.077694997814886 0 0 0
248 1 8.16215358450743 16.424490520533066 13.468973581505693 0 0 0
243 1 9.66247445352348 17.659439092615827 14.790498362663966 0 0 0
375 1 13.627294397827395 16.234532244469072 13.741281710361068 0 0 0
370 1 15.04731469024498 17.65989736904178 15.069053424949267 0 0 0
498 1 20.442794137652207 17.649644915210278 15.09803121147201 0 0 0
503 1 19.153152731868637 16.374515699663775 13.641211054317612 0 0 0
24 1 2.599359519842661 0.06492527466416576 13.688878259402271 0 0 0
117 1 1.321710376946721 20.319192194870542 15.170497523207402 0 0 0
242 1 5.372478988273266 19.067615325043356 13.734816446928184 0 0 0
245 1 6.799589129918451 20.447471355775775 15.006866948005383 0 0 0
369 1 11.06296047436073 19.195908870958863 13.527574162253451 0 0 0
372 1 12.437316353065405 20.499386582748965 14.940443050748915 0 0 0
274 1 13.893240036720877 21.567403336777428 13.467238935876964 0 -1 0
497 1 16.345186420108444 18.868261635550716 13.765078748755975 0 0 0
500 1 17.87011143384819 20.285851943931206 15.047602115626137 0 0 0
501 1 20.393271884931533 20.27124210737632 12.284212612590165 0 0 0
114 1 21.727267227210568 18.986726585939874 13.79132186390953 -1 0 0
26 1 1.356936738946046 1.4683558958918386 17.80292814484547 0 0 0
31 1 2.614182055073701 2.693993938426117 16.380010475312325 0 0 0
156 1 5.355559980484661 21.6775903735545 16.50850374428983 0 -1 0
158 1 8.289816630170593 2.60987987271176 16.23678675056221 0 0 0
159 1 6.988659005591556 1.3180878886947418 17.68085460274177 0 0 0
286 1 12.20480884901579 1.0455303936521685 17.848223359311703 0 0 0
283 1 11.004434456759169 21.714398130353086 16.269342557120535 0 -1 0
285 1 13.458703699298718 2.393808364828527 16.326220615893153 0 0 0
408 1 17.595240851441382 1.2866533106849016 17.71633150901752 0 0 0
411 1 16.320574714027973 21.587240486475288 16.357488950644353 0 -1 0
402 1 18.838794246777752 2.6822838285514976 16.294479715763252 0 0 0
28 1 21.747774702295978 0.24014106842166674 16.409536918608264 -1 0 0
60 1 21.642261454925666 5.406594947735389 16.357954857214352 -1 0 0
25 1 4.056430114388716 4.212597953264806 17.74201300055679 0 0 0
188 1 5.38899584513999 5.45751393441584 16.395524623717574 0 0 0
153 1 9.538062910487715 4.229702705379549 17.44980935119504 0 0 0
315 1 10.923639620447787 5.566743438857301 16.32818197795948 0 0 0
280 1 14.697181878284313 3.9626093479426516 17.811577359671574 0 0 0
443 1 16.346933640930516 5.441454467191605 16.356116074747433 0 0 0
447 1 20.21852281557411 3.9623352912459864 17.594883325601515 0 0 0
63 1 1.2299056826652779 6.856084458039471 17.831410102560735 0 0 0
62 1 2.544712938919635 8.234517697096953 16.328324625684253 0 0 0
190 1 8.242785179544267 8.191753621716224 16.32984384586243 0 0 0
191 1 6.900559812859956 6.820170545970209 17.819391585352196 0 0 0
318 1 12.231665359177677 6.9274255223689565 17.7631799455355 0 0 0
317 1 13.550557987857571 8.1497282644871 16.217197694654747 0 0 0
446 1 17.61542803824358 6.768203765976075 17.723273112521195 0 0 0
445 1 18.981452793002102 8.094963348515913 16.280818527612663 0 0 0
95 1 1.3286219409819053 12.144518948228907 17.720673924221558 0 0 0
92 1 21.65963905384739 10.87093079542596 16.330860380351613 -1 0 0
57 1 4.114994943167792 9.500266466428346 17.67389905318528 0 0 0
220 1 5.458176611767472 10.956192657859717 16.409734109763562 0 0 0
223 1 6.72543176449844 12.359003381570863 17.899741286096923 0 0 0
185 1 9.572080887499085 9.570005871010853 17.725572802570294 0 0 0
347 1 10.911104174305184 10.951486083143568 16.426949661003565 0 0 0
350 1 12.231157320832779 12.489748907456555 17.872371092068644 0 0 0
312 1 14.75472686591069 9.605976197309054 17.630311248783894 0 0 0
475 1 16.242277000983226 10.885437783580507 16.239885628315836 0 0 0
478 1 17.613040542152653 12.077026663933522 17.734275436979118 0 0 0
440 1 20.307405325397173 9.466725095199978 17.71860328841374 0 0 0
94 1 2.5833912829402284 13.50687030111157 16.206399117764356 0 0 0
89 1 3.869234756471868 14.919255660796766 17.524823006648163 0 0 0
222 1 8.095767600905639 13.654510809664155 16.318369940612307 0 0 0
217 1 9.53319286395725 14.880864857611275 17.771278881599656 0 0 0
344 1 14.950637011185197 14.915468834206349 17.735070009755646 0 0 0
349 1 13.526275875999845 13.634734096203399 16.340792704927345 0 0 0
472 1 20.40305841010345 15.095787111940403 17.785474371443772 0 0 0
477 1 18.94542060931699 13.625911957060376 16.344970643738307 0 0 0
127 1 1.466050944813524 17.572195808599567 17.833203225835636 0 0 0
252 1 5.5209183305818526 16.257946901897895 16.30102194567 0 0 0
255 1 6.924796613028683 17.707052035456755 17.568789764419545 0 0 0
379 1 10.831362428645068 16.32528776230798 16.598012923762543 0 0 0
382 1 12.202586054227975 17.715856186236454 17.688106609709276 0 0 0
507 1 16.297290017565476 16.26475429573326 16.480193290049428 0 0 0
510 1 17.568889172471277 17.810965465701653 17.884792184559764 0 0 0
124 1 0.08874215408827979 16.246107651595167 16.396662789213956 0 0 0
126 1 2.6792424949374025 18.943628262988945 16.301070771969606 0 0 0
121 1 3.8805218507839365 20.366988429697216 17.84657760049933 0 0 0
254 1 8.224032174432866 19.036663456808494 16.05249721618924 0 0 0
249 1 9.632216638004294 20.40746883890962 17.573081475054195 0 0 0
376 1 14.949565630971735 20.423988369236394 17.80724368959808 0 0 0
381 1 13.610445619006091 18.999216767307978 16.36520319010693 0 0 0
504 1 20.453292609648546 20.526661250351 17.751445858935277 0 0 0