LAMMPS (10 Sep 2025)
OMP_NUM_THREADS environment is not set. Defaulting to 1 thread.
  using 1 OpenMP thread(s) per MPI task
Loaded 1 plugins from C:\Users\lmike\AppData\Local\LAMMPS 64-bit 10Sep2025 with GUI\plugins
# LAMMPS input generated from LammpsInputFile with pymatgen v2025.10.7

# STYLES
units metal
atom_style atomic

# SET UP CALCULATION
read_data starting_config.dat
Reading data file ...
  orthogonal box = (0 0 0) to (21.754625 21.754625 21.754625)
  1 by 1 by 1 MPI processor grid
  reading atoms ...
  511 atoms
  read_data CPU = 0.004 seconds
pair_style sw
pair_coeff * * Si.sw Si
Reading sw potential file Si.sw with DATE: 2007-06-11
velocity all create 700 7810433

# CALCULATION PARAMETERS
fix f1 all nvt temp 700.0 700.0 $(100.0*dt)
fix f1 all nvt temp 700.0 700.0 0.10000000000000000555
thermo 100000
thermo_style custom step temp press spcpu cpuremain

# RUN CALC AND WRITE OUTPUTS
dump d1 all custom 100 state_dump id type x y z vx vy vz
run 10000000
Neighbor list info ...
  update: every = 1 steps, delay = 0 steps, check = yes
  max neighbors/atom: 2000, page size: 100000
  master list distance cutoff = 5.77118
  ghost atom cutoff = 5.77118
  binsize = 2.88559, bins = 8 8 8
  1 neighbor lists, perpetual/occasional/extra = 1 0 0
  (1) pair sw, perpetual
      attributes: full, newton on
      pair build: full/bin/atomonly
      stencil: full/bin/3d
      bin: standard
Per MPI rank memory allocation (min/avg/max) = 3.118 | 3.118 | 3.118 Mbytes
   Step          Temp          Press          S/CPU         CPULeft    
         0   700            516.39907      0              0            
    100000   700.47111      204.36444      534.88072      18508.8      
    200000   699.72824     -7.8170577      431.6791       20511.945    
    300000   695.50658      39.089931      440.77159      20870.714    
    400000   670.08946     -68.33424       546.95617      19879.584    
    500000   784.49122      759.25531      567.37867      19086.738    
    600000   676.20772     -249.72488      556.72577      18552.26     
    700000   693.39        -173.3076       562.75113      18093.618    
    800000   735.77251      67.24041       572.05735      17671.968    
    900000   702.99422      391.58664      572.05143      17305.19     
   1000000   721.94546      530.0189       557.02534      17019.246    
   1100000   672.33346      12.960395      570.56285      16718.188    
   1200000   693.66735      321.7215       569.69921      16440.044    
   1300000   676.6851      -42.826508      547.82608      16224.589    
   1400000   728.53348      426.19819      575.3378       15960.216    
   1500000   691.55501      151.84355      567.00162      15722.4      
   1600000   741.94654      521.53995      564.08892      15497.045    
   1700000   701.07003     -156.34125      571.48964      15266.138    
   1800000   698.24954      440.07976      560.54704      15057.007    
   1900000   728.92281      1150.2594      569.77209      14838.796    
   2000000   719.04735      682.84633      567.43657      14627.746    
   2100000   687.19726      66.684318      552.90257      14437.439    
   2200000   736.60959      72.833651      563.87421      14235.513    
   2300000   723.602        6.4799725      553.70992      14046.623    
   2400000   741.57488      427.9307       579.0573       13833.391    
   2500000   664.92755     -304.93527      564.47274      13636.787    
   2600000   719.39513      500.93854      570.06211      13436.735    
   2700000   647.39605     -40.850676      557.55859      13249.144    
   2800000   675.05766      103.09363      543.74309      13073.86     
   2900000   682.2814       755.68279      578.15435      12871.181    
   3000000   704.10358      861.33688      589.31587      12662.84     
   3100000   680.78435     -801.15152      555.36609      12480.081    
   3200000   713.70746     -10.711353      569.12157      12288.242    
   3300000   718.06976      515.38619      562.92224      12101.31     
   3400000   685.33787      294.82063      587.33182      11900.592    
   3500000   703.92038      531.29685      561.1403       11716.374    
   3600000   716.84098      486.76183      574.6499       11525.041    
   3700000   669.3935      -325.06395      562.50045      11341.044    
   3800000   702.58845      499.32358      561.91017      11157.679    
   3900000   744.2079       91.879011      574.253        10968.608    
   4000000   696.46576      32.546032      577.59768      10778.772    
   4100000   685.38956      154.1139       558.91071      10598.08     
   4200000   726.15752      524.09857      566.3068       10414.245    
   4300000   666.0703       338.63442      557.73341      10234.346    
   4400000   677.99268     -87.264374      574.39119      10047.857    
   4500000   725.88937      397.33753      548.58724      9871.9266    
   4600000   682.63694      10.002217      579.43707      9684.3273    
   4700000   717.93088      479.85759      567.08674      9501.6055    
   4800000   666.55111      628.84094      577.4142       9315.7328    
   4900000   679.40097     -18.285048      558.588        9136.453     
   5000000   727.79356      374.86669      558.50533      8957.2101    
   5100000   704.37126      268.40953      573.25593      8773.5482    
   5200000   661.88132     -344.58661      567.43207      8591.8937    
   5300000   661.65459     -115.57792      570.70995      8409.5461    
   5400000   692.81272      130.29665      564.11812      8229.2066    
   5500000   717.78921      359.93465      564.66617      8048.8381    
   5600000   678.18017      365.71119      551.13118      7872.0037    
   5700000   673.05004     -53.428521      570.72893      7690.3073    
   5800000   707.40175      15.407143      570.43798      7508.8992    
   5900000   707.72051     -14.127649      564.26633      7329.0304    
   6000000   656.24457     -54.357374      563.3765       7149.4365    
   6100000   759.54522      748.00262      570.33916      6968.5257    
   6200000   664.70482      67.371868      555.69157      6790.6275    
   6300000   715.34673     -486.23341      568.13641      6610.3489    
   6400000   661.48192      624.72295      564.74247      6430.7986    
   6500000   734.29113      289.26173      578.74234      6249.0181    
   6600000   762.84201      587.4613       553.54528      6071.5618    
   6700000   745.5132       1206.2902      570.24649      5891.4042    
   6800000   734.42773      519.7779       557.46977      5713.2789    
   6900000   648.25884     -234.01426      573.51785      5532.8621    
   7000000   701.15154      599.77058      549.85929      5355.8335    
   7100000   723.31773      582.25747      553.91493      5178.1248    
   7200000   713.99709      226.09704      577.29673      4997.4941    
   7300000   724.44779      872.18442      562.82673      4818.7136    
   7400000   704.55056      202.24116      571.81756      4638.9814    
   7500000   720.09462     -532.90369      553.29788      4461.3297    
   7600000   686.77312     -301.01116      560.27642      4282.886     
   7700000   690.27281      63.431486      565.55548      4103.9437    
   7800000   765.24966      589.01611      555.1833       3925.9876    
   7900000   690.86039      233.36098      676.59018      3739.3851    
   8000000   692.92271      346.6759       692.6404       3552.8964    
   8100000   729.55755      113.96131      689.31979      3367.6107    
   8200000   734.59336      512.23516      710.54088      3182.3548    
   8300000   679.64248     -6.4292571      720.89045      2997.7577    
   8400000   749.86388      734.37488      742.61794      2813.48      
   8500000   748.19859      682.04442      757.73346      2629.8957    
   8600000   717.86679      781.84293      758.39939      2447.4929    
   8700000   715.24337     -16.630475      731.18289      2266.9854    
   8800000   692.86152     -20.7485        741.51962      2087.2121    
   8900000   690.97451      37.604524      725.92696      1908.8061    
   9000000   732.07942      804.47094      734.66256      1731.1215    
   9100000   741.02742      383.20446      746.87929      1554.1303    
   9200000   700.0457       310.63338      722.4022       1378.4706    
   9300000   681.72873      179.76037      749.68112      1203.2324    
   9400000   718.16038      268.40764      754.23663      1028.8331    
   9500000   768.87351      842.70776      768.649        855.18338    
   9600000   694.63119     -331.05528      747.84909      682.59171    
   9700000   741.3706       277.96259      744.9528       510.81766    
   9800000   715.58531      424.71141      750.65677      339.78886    
   9900000   656.44655     -110.56791      755.8586       169.51469    
  10000000   718.31294      681.8358       744.15761      0            
Loop time of 16916.3 on 1 procs for 10000000 steps with 511 atoms

Performance: 51.075 ns/day, 0.470 hours/ns, 591.145 timesteps/s, 302.075 katom-step/s
99.5% CPU use with 1 MPI tasks x 1 OpenMP threads

MPI task timing breakdown:
Section |  min time  |  avg time  |  max time  |%varavg| %total
---------------------------------------------------------------
Pair    | 16637      | 16637      | 16637      |   0.0 | 98.35
Neigh   | 0.16889    | 0.16889    | 0.16889    |   0.0 |  0.00
Comm    | 44.568     | 44.568     | 44.568     |   0.0 |  0.26
Output  | 150.85     | 150.85     | 150.85     |   0.0 |  0.89
Modify  | 66.981     | 66.981     | 66.981     |   0.0 |  0.40
Other   |            | 16.81      |            |       |  0.10

Nlocal:            511 ave         511 max         511 min
Histogram: 1 0 0 0 0 0 0 0 0 0
Nghost:           1448 ave        1448 max        1448 min
Histogram: 1 0 0 0 0 0 0 0 0 0
Neighs:              0 ave           0 max           0 min
Histogram: 1 0 0 0 0 0 0 0 0 0
FullNghs:        17936 ave       17936 max       17936 min
Histogram: 1 0 0 0 0 0 0 0 0 0

Total # of neighbors = 17936
Ave neighs/atom = 35.099804
Neighbor list builds = 223
Dangerous builds = 0
write_data FINAL_STRUCTURE
System init for write_data ...
Total wall time: 4:41:56
