LAMMPS data file via write_data, version 10 Sep 2025, timestep = 10000000, units = metal

517 atoms
1 atom types

0 21.800341 xlo xhi
0 21.800341 ylo yhi
0 21.800341 zlo zhi

Masses

1 28.085

Atoms # atomic

2 1 1.363536748366389 1.2423895404111285 1.568650945171045 0 0 0
130 1 5.494206340447242 2.572453607181693 2.802361578401343 0 0 0
135 1 6.906430577358637 1.1665219344603164 1.382818077880804 0 0 0
134 1 8.120592297261757 2.5662499215192693 21.58313867708159 0 0 -1
258 1 10.753014323109083 2.9186376887720176 2.7731549340277173 0 0 0
263 1 12.014644042589254 1.3513909349631237 1.6356788442714998 0 0 0
262 1 13.277416405164859 2.759251281233986 0.10192200252852684 0 0 0
391 1 17.688013720501978 1.371020612514867 1.0559815867580553 0 0 0
386 1 16.115096903269865 2.5792768543986426 2.294603151549084 0 0 0
5 1 21.34152914613443 2.3808949218962114 2.5753311018093967 -1 0 0
4 1 21.644016139906203 21.726954393894417 0.15815612963641978 -1 -1 0
392 1 18.987800967413587 21.65128141582054 2.590120611520819 0 -1 0
390 1 18.879597920075003 2.7583923584755055 21.726345154787342 0 0 -1
514 1 2.5717430108250916 3.2253331399973018 2.5529698395891076 0 0 0
40 1 0.360764574429788 5.114758529667598 2.6022785637297514 0 0 0
6 1 2.806778393998205 5.0118599880467345 0.8705089690079013 0 0 0
516 1 4.69480891047317 3.130023157052295 0.43226607327518024 0 0 0
172 1 5.068463890230343 5.212059499637501 2.681889179511496 0 0 0
517 1 8.199416734319959 5.279244870565017 2.717166095744588 0 0 0
129 1 9.315981942059453 3.9508454458635263 1.1947145899130385 0 0 0
292 1 10.71579790774036 5.394218050541236 21.681372923936653 0 0 -1
257 1 14.766929546781114 4.202124545830486 1.1753471416351535 0 0 0
296 1 13.522420952929506 5.592001111127942 2.499524339759857 0 0 0
420 1 16.08234777651111 5.336828496226491 21.629013710331495 0 0 -1
424 1 18.590401864836064 5.599709229452335 2.939635460418436 0 0 0
385 1 20.01542054109813 4.041532746674689 1.6473272707350528 0 0 0
39 1 0.2515171940135598 6.898501937760813 0.4797315113911451 0 0 0
35 1 2.57100978107709 7.301800496676349 2.5347778416472972 0 0 0
162 1 5.5822975481594845 8.428410441687394 2.565670847253981 0 0 0
15 1 6.840575965410825 6.733676940411871 1.3919511250076102 0 0 0
290 1 10.76254629452532 8.179368290150498 2.6795320767368005 0 0 0
295 1 12.012397287887985 6.85057659752167 1.2836284936517968 0 0 0
423 1 17.473544855994465 6.833398429722406 1.1815837149412394 0 0 0
418 1 16.19092925866179 8.294502103579415 2.7509690616209235 0 0 0
34 1 21.59132991556467 8.224690140389823 2.644081337990458 -1 0 0
422 1 19.01440135804385 8.311846601631121 0.1985032348955043 0 0 0
196 1 2.9988770876891193 10.877986256563966 2.6578396634736645 0 0 0
71 1 1.5641619623580758 12.147090776995631 1.2890934454000125 0 0 0
33 1 4.177893144373864 9.404450294390788 1.1121771310459774 0 0 0
200 1 8.287393199792328 11.048919705884305 2.60639429162146 0 0 0
161 1 9.511162041921096 9.560648979057866 1.2657935704484848 0 0 0
327 1 12.370890928517074 12.187448432217549 1.4120440613916805 0 0 0
289 1 14.923884694766953 9.477738349198868 1.1421061362615754 0 0 0
328 1 13.511023423793882 10.868262219175355 2.7845841654750507 0 0 0
455 1 17.659604630544923 12.551713678236466 1.327011841026817 0 0 0
417 1 20.338050497681373 9.813409082822671 1.4943821988594939 0 0 0
456 1 18.835142999640045 11.147539265474546 2.642092605986408 0 0 0
70 1 2.907141051450155 13.482588720279686 21.533630948480837 0 0 -1
66 1 0.15115264732778072 13.437760317364951 2.7031996014931865 0 0 0
65 1 3.813145242296654 15.115254607758684 1.2164376519887834 0 0 0
194 1 5.348618448966423 13.73959942589343 2.476837408273604 0 0 0
199 1 6.653859035204327 12.11685053197386 1.3646805529596169 0 0 0
198 1 8.194491984876915 13.408142062793885 0.16271748248473156 0 0 0
193 1 9.350356348420005 14.835106769907085 1.5368556599101275 0 0 0
322 1 11.171328933470958 13.708341503452345 2.471324966192159 0 0 0
321 1 14.892906164469238 14.825027066218722 1.4795685736554405 0 0 0
449 1 20.533283800223433 14.776109959145636 1.3648755135038926 0 0 0
454 1 19.069920928437536 13.520133582713381 0.08289172976174086 0 0 0
103 1 1.4166089826917423 17.601202347321227 1.497204354415223 0 0 0
104 1 2.644873550566059 16.459617537919822 2.832814272292108 0 0 0
231 1 6.7389593508428955 17.52003623977459 1.1755658452660038 0 0 0
232 1 8.050948917370054 16.33193157070895 2.8271725354231347 0 0 0
356 1 10.616698775220481 16.444317273163296 0.1805071825549076 0 0 0
359 1 12.01603875160134 17.959475189600933 1.3501212101936346 0 0 0
360 1 13.512989156554342 16.62476055537378 2.607815908436519 0 0 0
487 1 17.71875848772404 17.772022721137233 1.3805347514347266 0 0 0
100 1 0.11860363552822505 16.26991793852698 21.761560435906098 0 0 -1
488 1 19.228519372388988 16.264767956462183 2.6943117409363593 0 0 0
513 1 2.7613889493507524 21.694731412793434 2.8667501167021783 0 -1 0
97 1 4.044246792207143 20.276404936183113 1.456840209215517 0 0 0
226 1 5.462247010034436 18.935817473069086 2.683167761377273 0 0 0
132 1 5.615123633719615 21.7744200063405 0.055588093469056 0 -1 0
136 1 8.192235736435666 21.541602037660198 2.8302127486205872 0 -1 0
230 1 8.062582884126188 18.939585082656443 0.023967224985811546 0 0 0
225 1 9.499898781165939 20.321572770051247 1.3683555282870277 0 0 0
354 1 10.83977590425511 19.067715224011394 2.9007597920040866 0 0 0
260 1 10.871905014494054 0.0505463826459455 0.23606615799797537 0 0 0
264 1 13.581898083333249 0.19609540835795514 2.762736737338679 0 0 0
353 1 14.788338071508566 20.22398937876611 1.3439225837274273 0 0 0
388 1 16.112055740499326 21.6689225420747 21.730488401927584 0 -1 -1
482 1 16.193347690518927 19.240177136909367 2.7848424104107696 0 0 0
98 1 21.71771548394738 19.060646679501655 2.863273355182561 -1 0 0
481 1 20.21766119769843 20.2722363462268 1.1001356262227815 0 0 0
17 1 2.864592687834471 2.7377495607362183 5.5804032705591835 0 0 0
8 1 4.053331602090707 1.2885264843605286 4.164968841260008 0 0 0
142 1 8.532855817052138 2.461213533167639 5.5282976368019074 0 0 0
131 1 9.671159594952938 1.3615071298575694 3.828892641247953 0 0 0
259 1 15.0209831964884 1.3902875625532882 3.8275440035545545 0 0 0
270 1 13.773543742542829 2.584512794301084 5.306426144843596 0 0 0
398 1 19.02142700809578 2.8203124467241496 5.515792740348576 0 0 0
387 1 20.221691443235272 1.0969883511580738 4.497887780875628 0 0 0
47 1 0.45974264425984374 3.053738625563824 5.027685222742726 0 0 0
7 1 2.6380011606362963 5.020013060762015 4.372973675098838 0 0 0
164 1 5.548439757728958 5.516219982656175 5.689048639398973 0 0 0
168 1 7.013622574501217 3.8317629461048006 4.263503233472329 0 0 0
300 1 11.007394344352312 5.577197359991182 5.420586355453431 0 0 0
261 1 12.438961773842193 4.271923385274125 3.9895585336833137 0 0 0
389 1 17.583017094923502 3.6595408687543003 4.142161350125195 0 0 0
428 1 16.4528978359527 5.429915104711115 5.147447510031032 0 0 0
44 1 0.1375879592344812 5.359546489091117 5.518256697939958 0 0 0
515 1 2.7829536517977957 8.230971659770445 5.669540225635356 0 0 0
1 1 4.621478852479086 7.262671821711023 4.48486636651473 0 0 0
174 1 8.166281025124226 8.274738869255469 5.449044175871591 0 0 0
163 1 9.579665243271771 6.912662339217188 4.141759983144731 0 0 0
291 1 14.898896171737999 6.931031865918946 3.99681293905366 0 0 0
302 1 13.758779712794071 7.960294974822482 5.574275079827028 0 0 0
430 1 18.962317052587444 8.414101464278067 5.374506948697752 0 0 0
419 1 20.315454027599543 6.907964568569466 4.246964006923362 0 0 0
72 1 1.4639944635425353 9.502948961350148 3.9217420368951523 0 0 0
204 1 5.556304139750619 11.177943549359663 5.376539330580071 0 0 0
67 1 4.21079173988317 12.428887001837579 3.9663261706155537 0 0 0
165 1 6.851346591850685 9.740337186888283 3.973109002746204 0 0 0
293 1 12.218673659160778 9.459763204601357 4.134979690069597 0 0 0
195 1 9.574289012816157 12.430661178831237 3.9202733195369626 0 0 0
332 1 10.901950399292488 11.015393472174924 5.34117190362998 0 0 0
323 1 14.859510832555449 12.384420845916619 4.120167642469624 0 0 0
421 1 17.564598419358262 9.843785928457763 4.04576637026789 0 0 0
460 1 16.48286168940921 11.182648067667294 5.461562466062012 0 0 0
76 1 0.029433730141288805 10.7556237702571 5.403361295611909 0 0 0
451 1 20.436933277484048 12.23174689392016 4.274315941070991 0 0 0
69 1 1.3291010235878906 15.000507400849763 4.133085714681363 0 0 0
78 1 2.9404529611013954 13.530183673983101 5.367337295309822 0 0 0
197 1 6.526881590082045 14.73674489109456 4.1871477303364495 0 0 0
206 1 8.068831951395232 13.491953925194213 5.447000111712163 0 0 0
325 1 12.455736076709911 15.057385675567382 4.003823019804355 0 0 0
334 1 13.677027544165746 13.613343389596672 5.594495647186197 0 0 0
450 1 16.313002099948882 13.6242609168606 2.8259542184731257 0 0 0
453 1 17.75160822279704 14.971190875231066 4.200968756264443 0 0 0
462 1 19.124347560046296 13.539297175907212 5.423460048053065 0 0 0
108 1 0.04352746032517302 16.255503386543428 5.467394441310898 0 0 0
99 1 4.324638604274702 17.69402723820499 4.199547281964255 0 0 0
236 1 5.368777152920824 16.080840795312774 5.689286005366755 0 0 0
227 1 9.433867870573087 17.711233938577017 4.101046918823634 0 0 0
364 1 10.872585777096605 16.024622592766796 5.410013905766509 0 0 0
355 1 14.81836023180402 17.70554955783777 4.04812208694411 0 0 0
492 1 16.27530748556461 16.32391136242746 5.369858708701533 0 0 0
483 1 20.393201460917716 17.640881466687922 4.297801422297316 0 0 0
110 1 2.981701882477475 19.00705070095179 5.661586034613217 0 0 0
101 1 1.3705808044375316 20.491418122573915 4.261398706525986 0 0 0
140 1 5.394145344255648 0.10254874059318672 5.37881875689464 0 0 0
238 1 8.003725686301541 18.919826699630256 5.553528078813407 0 0 0
229 1 6.8027852038410845 20.25552906404183 4.234482260516939 0 0 0
268 1 10.764939756193076 21.64409159500021 5.408080094149884 0 -1 0
357 1 12.380419110240464 20.27144255443667 4.158121414236758 0 0 0
366 1 13.818239931963562 19.0694928409431 5.561116798670097 0 0 0
396 1 16.30241417404975 0.14025541402867603 5.242641816417259 0 0 0
485 1 17.67144400574223 20.325228462794126 4.136462923070206 0 0 0
12 1 21.782047766042176 21.64065269748157 5.731986805302342 -1 -1 0
494 1 19.069178638647905 18.959668632763268 5.52673276325566 0 0 0
10 1 1.2335189135659634 1.3686461635653837 6.897888786704103 0 0 0
16 1 2.5565891165302244 21.78234318674641 8.264970085326594 0 -1 0
138 1 5.5445095380791924 2.7504910163331378 8.339590559887034 0 0 0
143 1 6.744082692822216 1.3047437095106849 6.862663268426908 0 0 0
144 1 8.081633922144329 21.60456123765559 8.289872029561051 0 -1 0
266 1 10.951964688322745 2.836608281285374 8.269028365067872 0 0 0
271 1 12.1305873041181 1.3374482974120943 6.9045564683579785 0 0 0
272 1 13.647938194238206 0.09823753238527289 8.17805458897016 0 0 0
267 1 15.100881473967377 1.4044842807452287 9.392378360610891 0 0 0
399 1 17.703750365963323 1.3665336107515247 6.73297977722455 0 0 0
394 1 16.48608960127803 2.972392370320471 7.98112545420894 0 0 0
13 1 21.79812578581903 2.8385160019841416 8.268543436828338 -1 0 0
400 1 19.061820159217312 0.04036668075734611 8.143043373915312 0 0 0
46 1 2.7407951938182484 5.355122414562456 8.303353817828377 0 0 0
48 1 4.141882778183489 4.1486623154359075 7.1084515038295315 0 0 0
176 1 8.34805402734517 5.179142173423409 8.262074801115853 0 0 0
137 1 9.702088886953462 4.11551641351916 6.620799279331369 0 0 0
265 1 14.868899080242839 4.086534395271715 6.6522630388128725 0 0 0
304 1 13.696397045220053 5.410408508368955 8.38027315590857 0 0 0
432 1 19.022829546932527 5.5881591351011615 8.395144853197214 0 0 0
393 1 20.48713362031143 4.050134450249069 6.988061700151906 0 0 0
37 1 1.4692888970450075 6.699916726370674 6.9514033666774795 0 0 0
170 1 5.51999338547793 8.225014917086028 8.25539838592246 0 0 0
175 1 7.051837878745318 6.960561977320293 7.03150594068739 0 0 0
298 1 10.843429663006557 8.198893085152184 8.285820216136631 0 0 0
303 1 12.248935256288622 6.756274552873542 7.077193692810204 0 0 0
426 1 16.446736983401177 8.163387470307935 8.293411175904053 0 0 0
431 1 17.712375186526046 6.8928853339048155 6.958697060308512 0 0 0
42 1 0.0025642823140116996 8.159798809855653 8.201648539264449 0 0 0
80 1 2.8974474450382806 10.933613616932206 8.195627090762095 0 0 0
79 1 1.4276126245942053 12.025467618247518 6.679073373383536 0 0 0
41 1 4.240633617364663 9.605068178634045 6.772761348154199 0 0 0
208 1 8.155071826535996 10.775692861153713 8.185452255279008 0 0 0
207 1 6.817386442238693 12.24682459025062 6.912132531826225 0 0 0
169 1 9.59336704612165 9.496855728376286 6.730645586197933 0 0 0
335 1 12.365965286938392 12.198453270575298 7.041664940580524 0 0 0
297 1 14.989650041392704 9.787119409197354 6.789230969264404 0 0 0
336 1 13.794661646355074 10.731161865714055 8.37364303588213 0 0 0
463 1 17.961870252237095 12.275547605255152 6.8102818034816215 0 0 0
425 1 20.442864613273123 9.454355397485433 6.89241730393657 0 0 0
464 1 19.095831129725703 10.857962831584219 8.2206012760157 0 0 0
77 1 1.474183232237132 14.753777429359483 9.74740311370715 0 0 0
202 1 5.305248969033087 13.78761187668929 8.16562129196592 0 0 0
73 1 3.9023762392878165 15.114757555813577 6.944997213969323 0 0 0
201 1 9.531904980278364 14.826754239785588 6.757878882895098 0 0 0
330 1 10.858777454327976 13.524056871791132 8.221207225366042 0 0 0
329 1 15.127460485310598 14.770604934321401 6.9496684182057855 0 0 0
458 1 16.44570331976493 13.335198974192462 8.147105831823264 0 0 0
74 1 0.10719815496019951 13.383242999709994 8.20653987129834 0 0 0
457 1 20.50575171622912 14.863429898270908 6.698989049298069 0 0 0
111 1 1.4949291361966808 17.677609362957078 6.819747212741265 0 0 0
112 1 2.4783064191881214 16.520580592042567 8.426381329677444 0 0 0
239 1 6.744687326324627 17.69444456682015 6.864806730584757 0 0 0
240 1 8.145490497550522 16.207754931056286 8.007945941877354 0 0 0
367 1 12.255897410104298 17.57894124786705 6.684815323366196 0 0 0
368 1 13.689247561642798 16.192674590677434 8.218487923060927 0 0 0
495 1 17.721237832404032 17.71476802610073 6.787237613737427 0 0 0
496 1 19.08243820997113 16.195163357070392 8.197578820677489 0 0 0
234 1 5.579889151580314 19.13213204166372 8.252290653699843 0 0 0
105 1 4.104856494803128 20.539831389488413 6.914021518020326 0 0 0
233 1 9.31857331311819 20.306526306731044 6.7699972985440855 0 0 0
362 1 11.096090248803563 19.112379115514734 7.965034869087751 0 0 0
361 1 15.078021356104006 20.645954424671707 6.823435813063979 0 0 0
490 1 16.38390433780093 19.23410028715436 8.296689765209324 0 0 0
106 1 0.015109300650400531 18.878196832175178 8.217952461104446 0 0 0
489 1 20.289195167020782 20.113557085259426 7.044226046770426 0 0 0
22 1 2.5931109945585824 2.7876133940491274 10.918785987981956 0 0 0
23 1 1.251726208908178 1.5297956009642935 12.316037482241027 0 0 0
11 1 4.039326002880045 1.243958393318959 9.622565165057537 0 0 0
148 1 5.3237383332196515 0.1985073283222146 11.012476208627296 0 0 0
150 1 8.448601589178653 2.6437342431993893 10.977142641186914 0 0 0
151 1 6.941193347474254 1.4195583712160713 12.386096853573767 0 0 0
139 1 9.703033610972719 1.360221154114404 9.476455559148997 0 0 0
279 1 12.359588119294797 1.261525428350281 12.271630452641231 0 0 0
278 1 13.662443144881328 2.635209985251894 10.883411097271827 0 0 0
407 1 17.64555355814379 1.3490695896819531 12.518961224140797 0 0 0
395 1 20.33947180867136 1.4981352197829299 9.528740100465527 0 0 0
406 1 18.930795194931253 2.855613010102684 11.132163958361986 0 0 0
20 1 21.685860235060346 0.19340070432326414 10.903479829417867 -1 0 0
43 1 1.2368062583295172 4.271394541541844 9.677011308740278 0 0 0
52 1 21.71295708797729 5.907333758895254 10.88151232113631 -1 0 0
133 1 5.5890296359027785 5.5282781540152 11.062420496996403 0 0 0
9 1 4.097073231886029 4.029550820600576 12.242978154811219 0 0 0
141 1 6.970839942981698 4.140426800866202 9.801634839036502 0 0 0
308 1 11.029228529376917 5.312264715966357 11.067780963593561 0 0 0
145 1 9.754496062638484 3.9415892471151825 12.51804005969394 0 0 0
269 1 12.344632533148031 3.8439803432196835 9.755013369161638 0 0 0
273 1 14.839535237980575 4.167113662071842 12.20924561293367 0 0 0
397 1 17.67775208536638 4.226869576163925 9.569436631030067 0 0 0
436 1 16.35081366423502 5.411387917585097 10.912752910970484 0 0 0
401 1 20.409919517044653 4.439722267982125 12.319158197233746 0 0 0
54 1 2.8930844129593067 8.136833775838104 10.77992120921737 0 0 0
55 1 1.4254003707728489 6.856705092822805 12.333604387251913 0 0 0
180 1 4.269692572424395 6.755864342348841 9.639637348063037 0 0 0
182 1 8.354264331294877 8.276948708807165 10.773781511840085 0 0 0
183 1 7.002719877745535 6.958428388552542 12.1457548720162 0 0 0
171 1 9.582005695023259 6.757152934743165 9.571564814963047 0 0 0
311 1 12.283121708925394 6.783574655158273 12.449535854666268 0 0 0
299 1 15.08461087123462 6.867711192720748 9.601686512940462 0 0 0
310 1 13.583439647057302 8.12533845643172 10.994997299950214 0 0 0
305 1 15.129814651088934 9.420505540114306 12.171549001278484 0 0 0
427 1 20.455775187377867 6.935597126128554 9.46406932173447 0 0 0
438 1 19.087161482316045 8.213375677227809 10.833533666010572 0 0 0
45 1 1.589123895034835 9.207719526177481 9.416491606188524 0 0 0
84 1 0.18448992997782115 10.72229306556802 10.802273848699702 0 0 0
87 1 1.5032690982866688 12.079470509420984 12.368115174660138 0 0 0
212 1 5.336900251655071 10.811220998119378 11.00511171431716 0 0 0
75 1 4.1794248900165 12.313888517685566 9.610637286859934 0 0 0
49 1 4.058151333528621 9.534288894275294 12.432880777936779 0 0 0
173 1 6.819703022909769 9.610663238807762 9.600129559738166 0 0 0
215 1 6.751078480417905 12.41542820167365 12.179539904290714 0 0 0
203 1 9.496071868285332 12.299046991332789 9.443623317971303 0 0 0
177 1 9.704926283505461 9.603889147518025 12.249710671369737 0 0 0
340 1 11.01098599451821 11.15070557178537 10.981223618745577 0 0 0
301 1 12.258167169398149 9.513009967162288 9.750117835047945 0 0 0
331 1 15.090231203386702 12.228829063317704 9.712425403898603 0 0 0
429 1 17.88923278188023 9.595584630897038 9.538707081876979 0 0 0
468 1 16.36882482311397 10.947170814083785 10.843018145994359 0 0 0
471 1 17.625455528701558 12.138673586780623 12.455612467290733 0 0 0
459 1 20.48487705849757 12.199794715697848 9.569148144814731 0 0 0
433 1 20.552537967066737 9.37223478634754 12.171066166507204 0 0 0
86 1 3.105933087966489 13.672554067561789 11.076945194076668 0 0 0
81 1 4.185472663258847 15.221772279990532 12.34402239339951 0 0 0
205 1 6.766182730125422 14.9950669575855 9.49679724325701 0 0 0
214 1 8.211989767741962 13.611556854266198 10.847879139227611 0 0 0
343 1 12.326957410694174 12.550699725264682 12.447452710535176 0 0 0
209 1 9.474743663620554 15.001654718223453 12.208466544552651 0 0 0
333 1 12.074362289259428 14.946468969367745 9.54977279104992 0 0 0
342 1 13.7254091305434 13.772451755951243 10.940278513002383 0 0 0
337 1 15.033236470781581 15.05204561163175 12.204248023285562 0 0 0
461 1 17.58638798421589 14.76919390648304 9.583129304054248 0 0 0
470 1 18.97896456744255 13.518613023031936 11.029311340605371 0 0 0
465 1 20.503037078600048 15.012919878604064 12.201870631472723 0 0 0
119 1 1.1951924855887635 17.807322814792833 12.290570083066507 0 0 0
116 1 21.732944693207507 16.18550020968866 10.72234511407511 -1 0 0
107 1 3.941427751521696 17.835736802752987 9.582745956436673 0 0 0
244 1 5.566361926754268 16.43715022449213 10.927537881251759 0 0 0
247 1 6.843696950570245 17.744420837600043 12.314722298713297 0 0 0
235 1 9.531178351434804 17.610188661262193 9.290154459872944 0 0 0
372 1 10.888907329346816 16.442653354621353 10.977154843617456 0 0 0
375 1 12.466046193834057 17.713356092895644 12.36749363812047 0 0 0
363 1 14.752870477493806 17.806430394218513 9.369989539304827 0 0 0
500 1 16.32163056982691 16.47528561985517 10.864287216087714 0 0 0
503 1 17.696341286950492 17.88668841931144 12.211400070614001 0 0 0
491 1 20.318345025251258 17.569803316673823 9.394920825971473 0 0 0
109 1 1.1512658024510132 20.49273891217757 9.507715255051341 0 0 0
118 1 2.553906614655351 19.17289735462194 10.881097099862668 0 0 0
113 1 3.947015943339116 20.368332646534416 12.430097807796473 0 0 0
237 1 6.734258623930975 20.578275354807822 9.873599716388261 0 0 0
246 1 8.239191945603968 19.017067339626653 10.950360578766553 0 0 0
276 1 10.867131881568092 21.760588599979652 10.932689578664904 0 -1 0
365 1 12.326291835044028 20.470714442772767 9.557145732377927 0 0 0
241 1 9.625945145441163 20.334976693362666 12.189598472399425 0 0 0
374 1 13.621540367374061 19.085188127356403 10.797203784778919 0 0 0
369 1 14.968773001075851 20.515974424087627 12.00596468663187 0 0 0
404 1 16.34078044207796 0.11753959786830162 10.935504213994525 0 0 0
493 1 17.770086784044658 20.580032425373393 9.542894359913234 0 0 0
502 1 19.057143434128932 19.138830640900444 10.788497771749395 0 0 0
497 1 20.351583338386256 20.512824833056705 12.16021675068228 0 0 0
24 1 2.6298970099780004 21.78346439723964 13.673353230263688 0 -1 0
19 1 4.088450004192379 1.2133297612489928 15.058019505067177 0 0 0
146 1 5.475479277070722 2.7329553197498524 13.698250763897668 0 0 0
152 1 8.268517032784626 21.66270512208603 13.599720428973278 0 -1 0
147 1 9.580390430422876 1.300664291323398 14.897276782553169 0 0 0
274 1 11.074805580955115 2.59154267751504 13.843087466697355 0 0 0
275 1 15.212845722675217 1.385148441338769 15.150771880805534 0 0 0
402 1 16.382787033621533 2.84566201166829 13.701002048335416 0 0 0
18 1 21.759596032934404 2.993303445628655 13.757536717705824 -1 0 0
403 1 20.589196312792758 1.4219484983617734 15.04952864041893 0 0 0
21 1 1.4624260958844386 4.103813155026903 15.144761136521677 0 0 0
56 1 2.545480568992458 5.432654865003167 13.727220881313848 0 0 0
149 1 6.970082158442471 3.9572145391365834 15.191435573163874 0 0 0
184 1 8.253538961448191 5.523350347257226 13.67808219415082 0 0 0
277 1 12.349264767067723 4.114106184872693 15.253802632961106 0 0 0
312 1 13.523367370092782 5.394639775989404 13.792838050393778 0 0 0
405 1 17.798725641753716 4.14964922862783 14.969664433210633 0 0 0
440 1 19.1911145680071 5.5380099004541865 13.761145025035196 0 0 0
50 1 0.1251775910399738 8.211961292669056 13.718277314840307 0 0 0
178 1 5.384977582505003 8.249484822733868 13.552646872873858 0 0 0
51 1 3.9409542449077564 6.976548738600789 14.933316547600645 0 0 0
179 1 9.775955387736634 6.91954107051906 14.977418441420902 0 0 0
306 1 11.234722549801543 8.559856027482017 13.686442461018881 0 0 0
307 1 14.888514989083893 6.797172125134171 14.892669411206551 0 0 0
439 1 18.003781534946807 6.784150401923662 12.139931902238631 0 0 0
434 1 16.514044214550026 8.016829719356856 13.636073417079691 0 0 0
437 1 17.80767540034692 9.357586039866142 14.997437864384347 0 0 0
435 1 20.486760032874848 6.9201806133745425 15.233791483276837 0 0 0
53 1 1.4712717547388303 9.55773581961258 14.986034705494514 0 0 0
88 1 2.844936790121177 10.889698183569363 13.729048557593291 0 0 0
181 1 6.760480090751844 9.807210671404869 14.762485114593902 0 0 0
216 1 8.349060393146052 11.194406443033216 13.478306950926916 0 0 0
211 1 9.674402158117363 12.552802017644002 15.086372589613047 0 0 0
309 1 12.435273278032827 9.821484853445932 15.16909568482745 0 0 0
344 1 13.858096666569404 10.924110035025645 13.63011700865626 0 0 0
339 1 15.108858370358929 12.174656261711245 14.94782771780748 0 0 0
472 1 19.170438610600613 10.696451337493858 13.578487477812383 0 0 0
467 1 20.578048491826333 12.11713481239435 14.920303395692804 0 0 0
85 1 1.4494950771773103 14.858375788290891 14.77525819784302 0 0 0
82 1 0.06984769954074821 13.430742190636963 13.438786766378822 0 0 0
83 1 3.964711640856096 12.567316073715556 14.92114814451949 0 0 0
210 1 5.498111436302079 13.783820601940457 13.593064970077965 0 0 0
213 1 6.917707017227426 15.112413306733645 14.99536760294385 0 0 0
338 1 11.090161392786925 14.012339872382908 13.657022461570982 0 0 0
341 1 12.567223647581041 15.111672577016094 15.201556065606827 0 0 0
466 1 16.44044841540155 13.768370507954119 13.744370216045036 0 0 0
469 1 17.885665647846224 15.15485995020672 14.881363981803162 0 0 0
120 1 2.575024461607498 16.522565569041316 13.615075027824552 0 0 0
115 1 4.049237830916198 17.84885313747627 14.824582655754554 0 0 0
248 1 8.426025462748695 16.408680865149737 13.659763415829813 0 0 0
243 1 9.649755963224777 17.678907130593746 15.268242403167854 0 0 0
371 1 15.29963974678813 17.802313012048216 15.0079348253223 0 0 0
376 1 13.846240233117065 16.454786764193845 13.636347466449998 0 0 0
504 1 19.3854286845459 16.43557184725349 13.490009710369925 0 0 0
499 1 20.592987195340378 17.72084984962433 15.135362284009535 0 0 0
117 1 1.2820681180541005 20.489752606610967 15.058978458935448 0 0 0
242 1 5.432003420974937 19.09342843761056 13.473742929038165 0 0 0
245 1 6.944691497201544 20.2452633290957 14.788456858811376 0 0 0
370 1 11.090814848587762 19.164365058844997 13.864627508245386 0 0 0
280 1 13.747349276957937 0.047921871488404995 13.57262134876063 0 0 0
373 1 12.39405401356536 20.4644110398874 15.130076353660465 0 0 0
498 1 16.324957254164808 19.341592687208397 13.609001959349516 0 0 0
501 1 17.77511890824907 20.27944244588981 15.100810321488423 0 0 0
408 1 19.092192557638718 21.799406377971437 13.640297998996573 0 -1 0
114 1 0.030613701762225335 19.105391129219974 13.842468240183013 0 0 0
31 1 1.4998251363474222 1.2823051518122026 17.680373355685255 0 0 0
30 1 2.889138461106305 2.790193118370238 16.368683697155564 0 0 0
159 1 6.812620532204981 1.2316512090847227 17.615732056486678 0 0 0
158 1 8.164386765801542 2.4433024289366445 16.37053227065776 0 0 0
287 1 12.31162391634597 1.4035125377226136 17.655254301574402 0 0 0
284 1 10.882249614748911 21.79073350981513 16.335593619682868 0 -1 0
286 1 13.735210691144058 2.70123800641315 16.511614174050404 0 0 0
415 1 17.76841918260388 1.283559093165943 17.641271511201907 0 0 0
414 1 19.281014018910813 2.7925579892736474 16.509741186193434 0 0 0
25 1 4.264975461233193 4.097330308120253 17.535146098296714 0 0 0
188 1 5.382411236634299 5.469947071811513 16.12304335995855 0 0 0
153 1 9.294440649784658 4.259741853229894 17.8042681628272 0 0 0
316 1 10.846909293087563 5.502105389864648 16.58442868216057 0 0 0
281 1 15.234450886036443 4.104354897682444 17.771597342351694 0 0 0
444 1 16.266523805477103 5.520060983497082 16.221148781168807 0 0 0
60 1 21.753572819061908 5.2686175926750005 16.366243235433096 -1 0 0
409 1 20.549628149190713 3.97487338214533 17.93410526542192 0 0 0
63 1 1.3438771359102883 6.502938098932629 17.637105829830976 0 0 0
62 1 2.380384104703136 8.23139684784972 16.43727948471195 0 0 0
191 1 6.686914978320423 6.862573127305647 17.586907419094377 0 0 0
190 1 8.118209395320779 8.314875937064528 16.333276656059084 0 0 0
319 1 12.37220042866092 6.81829869134302 17.699232377041735 0 0 0
318 1 13.661599978527127 8.37196146147074 16.46943678229505 0 0 0
447 1 17.735145588145535 6.828806956543297 17.684732620175662 0 0 0
446 1 19.205301137198248 8.237760441374835 16.440719167402847 0 0 0
95 1 1.5395294251018858 12.413301953400701 17.807607837473423 0 0 0
92 1 0.1417571408297289 11.006900021733196 16.383974971920605 0 0 0
57 1 4.091217301077396 9.691471857751464 17.483067702029633 0 0 0
220 1 5.378480743047484 11.089325051961518 16.092984258987347 0 0 0
223 1 7.018631400051988 12.387737527025811 17.49269150222941 0 0 0
185 1 9.593721359854857 9.819984705825966 17.663532222977036 0 0 0
348 1 11.163428719778915 11.264725100958946 16.444561161378296 0 0 0
351 1 12.385159119968112 12.541065722051957 17.878064343585045 0 0 0
313 1 14.947760989815526 9.708408019976215 17.786756087376713 0 0 0
476 1 16.48405655691723 10.828180076437622 16.33495858100796 0 0 0
479 1 17.966269683098464 12.149488030848579 17.68285085950128 0 0 0
441 1 20.4524348649412 9.537857416349674 17.731043337016008 0 0 0
94 1 2.8008965906251464 13.77586731743566 16.391683481715834 0 0 0
89 1 4.102385602758535 15.10741413366022 17.729647488489952 0 0 0
222 1 8.322129359652006 13.84873365235998 16.37857169953507 0 0 0
217 1 9.81793135278855 14.942433662479427 17.718167062132377 0 0 0
345 1 15.196737899236771 15.064392533822968 17.61714112986178 0 0 0
350 1 13.87423502591898 13.643285838035608 16.379330111680254 0 0 0
478 1 19.19503268437502 13.805719790507691 16.216644271015962 0 0 0
473 1 20.60885356872702 14.961135656674397 17.650057356554537 0 0 0
127 1 1.4892632992977652 17.83490460751477 17.763492912488925 0 0 0
124 1 0.33069692658127614 16.21587904745919 16.30937779006813 0 0 0
252 1 5.42649522842948 16.481821681860904 16.181937767450442 0 0 0
255 1 6.9432006836645765 17.449380589010673 17.717413409965314 0 0 0
380 1 11.230193432471962 16.31922461060803 16.538665221129882 0 0 0
383 1 12.502724181150507 17.849235774362697 17.808468165958963 0 0 0
508 1 16.72645976426512 16.54772649495772 16.31174210154902 0 0 0
511 1 17.99617776259741 17.646711204519406 17.84245643483509 0 0 0
28 1 0.09579389090376011 0.10708984580243283 16.406032478666056 0 0 0
126 1 2.818358112489625 19.18754258756575 16.387153364372654 0 0 0
156 1 5.649100774695721 21.71576479545014 16.18666834959271 0 -1 0
121 1 4.263200855531967 20.438859338406928 17.923390432955628 0 0 0
254 1 8.211250494358108 19.111711657486037 16.312623185207837 0 0 0
249 1 9.638333322598156 20.358960711255744 17.664402490634203 0 0 0
382 1 13.890103245131824 19.181964430602147 16.550907842898106 0 0 0
377 1 15.26241436745681 20.25767198264887 18.013334217368204 0 0 0
412 1 16.49525137519845 21.666626576359715 16.529134477043108 0 -1 0