LAMMPS (10 Sep 2025)
OMP_NUM_THREADS environment is not set. Defaulting to 1 thread.
  using 1 OpenMP thread(s) per MPI task
Loaded 1 plugins from C:\Users\lmike\AppData\Local\LAMMPS 64-bit 10Sep2025 with GUI\plugins
# LAMMPS input generated from LammpsInputFile with pymatgen v2025.10.7

# STYLES
units metal
atom_style atomic

# SET UP CALCULATION
read_data starting_config.dat
Reading data file ...
  orthogonal box = (0 0 0) to (21.800341 21.800341 21.800341)
  1 by 1 by 1 MPI processor grid
  reading atoms ...
  517 atoms
  read_data CPU = 0.002 seconds
pair_style sw
pair_coeff * * Si.sw Si
Reading sw potential file Si.sw with DATE: 2007-06-11
velocity all create 1200 2891877

# CALCULATION PARAMETERS
fix f1 all nvt temp 1200.0 1200.0 $(100.0*dt)
fix f1 all nvt temp 1200.0 1200.0 0.10000000000000000555
thermo 100000
thermo_style custom step temp press spcpu cpuremain

# RUN CALC AND WRITE OUTPUTS
dump d1 all custom 100 state_dump id type x y z vx vy vz
run 10000000
Neighbor list info ...
  update: every = 1 steps, delay = 0 steps, check = yes
  max neighbors/atom: 2000, page size: 100000
  master list distance cutoff = 5.77118
  ghost atom cutoff = 5.77118
  binsize = 2.88559, bins = 8 8 8
  1 neighbor lists, perpetual/occasional/extra = 1 0 0
  (1) pair sw, perpetual
      attributes: full, newton on
      pair build: full/bin/atomonly
      stencil: full/bin/3d
      bin: standard
Per MPI rank memory allocation (min/avg/max) = 3.12 | 3.12 | 3.12 Mbytes
   Step          Temp          Press          S/CPU         CPULeft    
         0   1200           40107.52       0              0            
    100000   1239.6198      9286.5416      526.44883      18805.247    
    200000   1237.626       12897.295      402.84489      21471.138    
    300000   1180.959       9935.8162      394.62997      22361.359    
    400000   1247.7925      10998.352      448.67938      21947.153    
    500000   1267.3714      7210.8814      505.61672      21132.617    
    600000   1180.0441      10057.704      491.80188      20610.705    
    700000   1146.9262      10958.726      514.24418      20061.921    
    800000   1208.5544      11094.58       504.00585      19647.146    
    900000   1180.9067      7980.2246      488.51124      19344.083    
   1000000   1235.7874      10154.646      491.09635      19050.994    
   1100000   1166.1169      11195.926      497.72186      18752.239    
   1200000   1220.8404      10123.807      480.70741      18521.941    
   1300000   1240.7101      10516.071      498.70397      18244.83     
   1400000   1161.1797      12274.475      496.33998      17984.528    
   1500000   1171.5957      10617.637      493.30502      17739.093    
   1600000   1189.2396      11124.503      474.17596      17541.932    
   1700000   1152.8754      7561.8928      488.08673      17313.809    
   1800000   1135.7405      12230.241      489.4597       17085.651    
   1900000   1184.155       8379.2174      505.74605      16831.956    
   2000000   1189.8875      9229.6429      485.12599      16617.474    
   2100000   1219.8585      10092.648      493.92436      16389.975    
   2200000   1175.0674      10393.54       491.21591      16168.709    
   2300000   1118.9594      10151.354      496.77841      15941.351    
   2400000   1175.9824      11691.043      478.84304      15740.04     
   2500000   1097.6659      9484.4484      487.32502      15527.222    
   2600000   1254.1885      9687.7406      493.04401      15308.216    
   2700000   1241.7725      12689.424      496.80656      15086.256    
   2800000   1217.0671      9908.94        489.7383       14873.242    
   2900000   1250.4641      11252.542      469.97878      14681.856    
   3000000   1157.3705      8509.6718      490.51324      14468.259    
   3100000   1198.7477      13051.394      500.28353      14246.428    
   3200000   1223.1529      10538.897      479.75067      14044.147    
   3300000   1159.212       9198.4619      490.36386      13832.334    
   3400000   1197.6202      9222.8402      496.81871      13615.842    
   3500000   1163.7122      9320.1319      481.80343      13411.868    
   3600000   1194.0158      8560.1325      471.74302      13215.564    
   3700000   1224.1484      10794.186      490.26164      13004.779    
   3800000   1182.6536      7346.2212      485.47258      12797.636    
   3900000   1184.0975      8269.4199      488.09218      12588.823    
   4000000   1179.4323      9763.5768      496.69432      12374.884    
   4100000   1168.0731      7545.5062      503.5865       12157.595    
   4200000   1237.511       7922.0369      482.38538      11953.25     
   4300000   1218.1003      9655.3233      484.45324      11747.594    
   4400000   1215.6066      7991.9216      496.63406      11535.459    
   4500000   1188.2656      9642.8442      496.93914      11323.653    
   4600000   1221.2882      9426.3385      502.05678      11109.899    
   4700000   1207.8563      9642.8142      475.53128      10909.293    
   4800000   1227.5402      9311.1608      474.2687       10708.891    
   4900000   1219.7066      11654.839      494.94133      10498.895    
   5000000   1234.6931      11610.091      498.2757       10287.866    
   5100000   1144.5037      9220.717       501.60082      10075.964    
   5200000   1195.411       11372.795      491.19345      9868.4433    
   5300000   1189.3072      10048.395      495.92868      9659.3474    
   5400000   1139.7745      8440.8541      502.3267       9448.3397    
   5500000   1224.0924      11171.916      509.5934       9235.4433    
   5600000   1279.8023      10846.593      491.71418      9028.7483    
   5700000   1255.4387      10194.314      496.82456      8820.5919    
   5800000   1145.5466      8443.3834      486.46794      8615.7757    
   5900000   1213.2896      8920.7309      484.32216      8411.567     
   6000000   1159.6408      11097.234      479.71052      8208.6061    
   6100000   1201.1583      10753.865      474.52979      8006.9199    
   6200000   1159.8645      7645.3794      498.58672      7798.7099    
   6300000   1231.2839      7887.1576      484.36108      7594.2021    
   6400000   1187.0363      10171.356      488.52178      7388.6443    
   6500000   1227.5559      9199.0522      479.10623      7185.279     
   6600000   1236.6705      10245.087      489.35722      6979.499     
   6700000   1215.4342      8909.6603      473.89641      6777.0454    
   6800000   1160.0403      10810.029      480.92038      6572.8897    
   6900000   1128.1208      9871.4685      483.26194      6368.1717    
   7000000   1266.4655      10035.393      485.75371      6162.9357    
   7100000   1145.9543      11151.392      490.01056      5956.9515    
   7200000   1243.761       11138.868      499.48341      5749.5151    
   7300000   1216.5602      10410.111      488.70314      5543.9102    
   7400000   1184.5291      10233.731      485.30208      5338.8357    
   7500000   1170.0294      11064.129      496.46477      5132.1907    
   7600000   1252.1329      9143.6759      490.63865      4926.4383    
   7700000   1171.8234      8858.4492      480.69727      4721.9953    
   7800000   1195.5145      12234.89       481.48324      4517.3645    
   7900000   1262.7789      10023.569      483.39822      4312.4376    
   8000000   1134.5649      9815.6775      486.53069      4107.1291    
   8100000   1219.3806      10055.765      477.2663       3902.7508    
   8200000   1172.0753      8938.5892      477.50606      3698.2239    
   8300000   1196.4695      11487.314      490.11426      3492.4756    
   8400000   1218.136       8916.3599      508.93539      3285.3309    
   8500000   1160.2967      11214.473      493.57695      3079.5158    
   8600000   1219.2649      10062.66       497.22107      2873.5338    
   8700000   1180.678       8821.5003      493.1916       2667.9091    
   8800000   1247.5833      10651.008      500.43375      2461.9493    
   8900000   1175.1375      9340.9938      499.32171      2256.1824    
   9000000   1222.5365      10252.578      512.04752      2049.9846    
   9100000   1188.4729      11703.891      527.9616       1843.4442    
   9200000   1158.2408      10188.418      539.13292      1636.9349    
   9300000   1200.4063      9093.2516      524.06585      1431.2793    
   9400000   1247.6262      9213.64        558.82983      1225.1817    
   9500000   1168.7161      11666.762      559.08045      1019.6515    
   9600000   1174.1443      8850.8422      599.14884      814.17839    
   9700000   1195.2058      11692.643      602.75438      609.46969    
   9800000   1184.4294      10371.918      667.68357      405.22363    
   9900000   1163.6813      8494.1071      688.15416      202.03307    
  10000000   1178.9751      10888.913      728.88538      0            
Loop time of 20138.5 on 1 procs for 10000000 steps with 517 atoms

Performance: 42.903 ns/day, 0.559 hours/ns, 496.562 timesteps/s, 256.723 katom-step/s
99.5% CPU use with 1 MPI tasks x 1 OpenMP threads

MPI task timing breakdown:
Section |  min time  |  avg time  |  max time  |%varavg| %total
---------------------------------------------------------------
Pair    | 19798      | 19798      | 19798      |   0.0 | 98.31
Neigh   | 59.344     | 59.344     | 59.344     |   0.0 |  0.29
Comm    | 45.012     | 45.012     | 45.012     |   0.0 |  0.22
Output  | 153.64     | 153.64     | 153.64     |   0.0 |  0.76
Modify  | 64.712     | 64.712     | 64.712     |   0.0 |  0.32
Other   |            | 17.79      |            |       |  0.09

Nlocal:            517 ave         517 max         517 min
Histogram: 1 0 0 0 0 0 0 0 0 0
Nghost:           1472 ave        1472 max        1472 min
Histogram: 1 0 0 0 0 0 0 0 0 0
Neighs:              0 ave           0 max           0 min
Histogram: 1 0 0 0 0 0 0 0 0 0
FullNghs:        18654 ave       18654 max       18654 min
Histogram: 1 0 0 0 0 0 0 0 0 0

Total # of neighbors = 18654
Ave neighs/atom = 36.081238
Neighbor list builds = 76665
Dangerous builds = 0
write_data FINAL_STRUCTURE
System init for write_data ...
Total wall time: 5:35:38
