LAMMPS data file via write_data, version 29 Aug 2024, timestep = 10000000, units = metal

507 atoms
1 atom types

0 21.77481 xlo xhi
0 21.77481 ylo yhi
0 21.77481 zlo zhi

Masses

1 28.085

Atoms # atomic

7 1 1.3686081761572506 1.3375234294493994 1.4829353050955234 0 0 0
6 1 2.6634480066582724 2.5700158548069174 0.10173462992350224 0 0 0
130 1 5.525799801602637 2.8048693844180863 2.529014148449469 0 0 0
135 1 6.62309305009089 1.20308785336644 1.4373255578573436 0 0 0
229 1 8.038560779503658 21.705484676995454 2.662886753096509 0 0 0
129 1 10.752407602422496 2.601050396516072 2.7018973687747643 0 0 0
257 1 12.36565418159779 1.1228547881216755 1.5201515621966701 0 0 0
390 1 17.504584810700763 1.4389140614697888 1.335270278844073 0 0 0
258 1 16.145978345226492 2.4109981397382754 2.916471975460277 0 0 0
2 1 21.699081203045083 2.897169901219124 2.8703805850695074 -1 0 0
389 1 19.001484276241552 2.611124352088725 0.013233855581724185 0 0 0
40 1 2.5567226153184865 5.318375615611171 2.9615658610843147 0 0 0
1 1 3.897674764578285 4.116333072611982 1.447394486489038 0 0 0
164 1 5.348550616057575 5.208784292502481 21.71556799852719 0 0 -1
168 1 8.358202639514335 5.222382570325388 2.593188558479073 0 0 0
134 1 9.5508957165043 3.713595410528362 1.1928080618009351 0 0 0
291 1 10.503831664146642 5.3786329399083534 21.726787164853093 0 0 -1
385 1 14.825606544981833 4.001226938451938 1.6079240844886482 0 0 0
295 1 13.40069598749806 5.360806424273515 2.8333678435803678 0 0 0
384 1 20.26972960105122 3.930221439302092 1.3453056724361325 0 0 0
423 1 18.942082988046124 5.2633601291096195 2.695304954308887 0 0 0
36 1 21.76876262437688 5.291566821530767 0.05595748822306135 -1 0 0
39 1 1.3059555551165427 6.7107812055749045 1.5969919780582724 0 0 0
38 1 2.8500716121005123 7.860998038503451 0.25260005916570805 0 0 0
162 1 5.307545626856092 7.9944933185628235 2.7171213726420214 0 0 0
167 1 6.7320847093109 6.481378029222912 1.2686292148526606 0 0 0
166 1 8.143461565935732 8.138971613625543 0.01541686551274779 0 0 0
289 1 10.749342165875312 7.981786760306998 2.874907460421229 0 0 0
294 1 11.993766177737744 6.63947266961191 1.5470294561467834 0 0 0
288 1 14.933165417780309 9.251491952601006 1.4742546146857634 0 0 0
422 1 17.705504871433156 6.684245458417362 1.3941560838860827 0 0 0
417 1 16.238157200525492 7.897752968452382 2.778388940144978 0 0 0
34 1 21.770769960176903 8.083648130182985 2.8127629878187665 -1 0 0
71 1 1.5312203631129384 12.24498348990481 1.5287930952119273 0 0 0
72 1 2.7311730120712894 10.817688040505393 2.7725256318931937 0 0 0
33 1 4.09488825328257 9.453254733605101 1.4323382824643127 0 0 0
196 1 5.369903015003236 10.684291319487867 21.713279764251826 0 0 -1
200 1 8.090927990579466 10.91971852155078 2.4924189326609008 0 0 0
199 1 6.934893694701912 12.294986996004631 1.0582434713028062 0 0 0
161 1 9.583865002988919 9.493497746720003 1.4311188056076143 0 0 0
326 1 12.252008463231164 12.261446800719096 1.507556876883554 0 0 0
327 1 13.559341817273786 10.679993701725378 2.779394597892053 0 0 0
454 1 17.46993113102787 12.069099720578274 1.3697601036674423 0 0 0
416 1 20.425494698205135 9.545568589562109 1.520056334181239 0 0 0
455 1 18.974151913911353 10.818404049572116 2.9290576412804907 0 0 0
70 1 2.8229886618416096 13.505526856321122 0.0192871155319665 0 0 0
66 1 0.15645198458141907 13.563067579680308 2.8718052606014637 0 0 0
65 1 4.072182988080915 14.907009082338986 1.2753480785652882 0 0 0
194 1 5.51843993506163 13.596184400571717 2.590562493821423 0 0 0
198 1 8.2510157949924 13.764334355094592 21.65045749092197 0 0 -1
193 1 9.536823091759581 15.081557933048886 1.4430230316244992 0 0 0
321 1 10.814629659378223 13.59301183976513 2.776146087562934 0 0 0
320 1 15.18552626069238 15.020389932161775 1.222825027264118 0 0 0
325 1 13.72644434072309 13.559018991364956 0.20694077110472758 0 0 0
449 1 16.238935902112956 13.511580529767414 2.6929373375677943 0 0 0
448 1 20.360463198951525 14.796575678756204 1.310520935946843 0 0 0
453 1 18.966785855414606 13.405043142983178 0.09521075243374465 0 0 0
103 1 1.3446432776197563 17.769848313074487 1.2483232659290795 0 0 0
104 1 2.7750348553254187 16.396581340976407 2.538994251173754 0 0 0
231 1 6.9225547566906105 17.724223848776766 1.2753198425231584 0 0 0
232 1 8.220416340533735 16.5404689066511 2.796956418603301 0 0 0
355 1 10.922073181963151 16.382520733943515 21.66972218788 0 0 -1
358 1 12.299040372699746 17.654724176078613 1.2507286093629664 0 0 0
359 1 13.669396661221795 16.378737881629426 2.634522084915958 0 0 0
486 1 17.783389130675815 17.575297467052177 1.2782348940015524 0 0 0
483 1 16.640256525491154 16.289495293822146 21.54177577808329 0 0 -1
487 1 19.152468109996892 16.29971207698356 2.6747498434929673 0 0 0
8 1 2.7568542790662565 0.06271372233373214 2.6208303836974944 0 0 0
98 1 21.75528221017535 18.923132550944686 2.74444527893136 -1 0 0
97 1 4.241423356393626 20.234481878153918 1.3542535339236044 0 0 0
226 1 5.660451937634401 18.926660634335757 2.7456161391621374 0 0 0
225 1 8.30746972213554 19.074185149879956 21.735338510738096 0 0 -1
353 1 9.49936317688586 20.26612595078598 1.434614145318153 0 0 0
356 1 11.145663832016051 19.02473615040101 2.7155887485024612 0 0 0
262 1 13.677358263346132 21.48869185684202 2.809180352334745 0 -1 0
352 1 15.151966640569006 20.361551079421325 1.35400947240516 0 0 0
357 1 13.753353418898275 19.14207613365096 0.026710116874262724 0 0 0
481 1 16.47268288126729 18.901057881782908 2.6328496803734107 0 0 0
387 1 16.377673326052914 21.746735323800998 0.02723816657019995 0 -1 0
391 1 19.155959604566576 0.03947829092184573 2.612037453355606 0 0 0
480 1 20.549136136695928 20.211871838007188 1.5049189152964584 0 0 0
485 1 19.115360002945696 19.031105039557975 21.748845600190446 0 0 -1
14 1 2.859551121889514 2.811273937990262 5.517630489926928 0 0 0
3 1 4.144242450062368 1.4593635733819277 3.955738201430008 0 0 0
142 1 8.183850144276295 2.496622644421623 5.344958458979538 0 0 0
131 1 9.477548673247574 1.1086524743696133 3.94838885297018 0 0 0
271 1 11.034076791738705 0.1427467835451967 5.554692819669082 0 0 0
263 1 14.71763244202528 0.95885682550636 4.333487719246463 0 0 0
269 1 13.053962388085571 2.025070143843561 5.782051384825035 0 0 0
397 1 18.790168116522775 2.633787200115963 5.410611402177675 0 0 0
386 1 20.391817607465867 1.4923717947711859 4.171226436588767 0 0 0
5 1 1.2922974805597254 4.02224660922251 4.273706346984784 0 0 0
172 1 5.523574425447204 5.477144493221068 5.461870203050862 0 0 0
133 1 6.895865204493887 3.9265305659351304 4.048667879893413 0 0 0
299 1 10.73609074630538 5.365205980187459 5.379148799756562 0 0 0
260 1 12.27568878912654 3.6966843367625386 4.162671836887012 0 0 0
388 1 17.3940752099181 3.9616591762765196 4.137695767451935 0 0 0
427 1 16.027246968430045 5.2280519363055085 5.639374686913388 0 0 0
44 1 21.52275814566961 5.31921896689649 5.5947578639557465 -1 0 0
46 1 2.8140320330371007 8.01986968946056 5.638144965742889 0 0 0
35 1 4.051717949452813 6.76376158297741 4.202381365202595 0 0 0
174 1 8.14929604312937 8.141581356536872 5.462300869387901 0 0 0
163 1 9.366140113652119 6.72879492597965 4.1711542619235935 0 0 0
292 1 12.22375865061782 9.417355563175708 4.171478224907603 0 0 0
290 1 14.782760691675843 6.757623515503842 4.226508682165457 0 0 0
301 1 13.387120844604986 8.16035232078911 5.656329157486721 0 0 0
420 1 17.793662522598858 9.236241438881672 4.267276055188634 0 0 0
429 1 19.077392673975595 7.92289600309079 5.6493142784917225 0 0 0
418 1 20.37391057787865 6.611426241577712 4.000839225840063 0 0 0
37 1 1.4302959144642944 9.286310371792911 4.208545061019305 0 0 0
76 1 0.020106570811247337 10.809008299007527 5.292490073321798 0 0 0
204 1 5.491246341598459 10.612293807573863 5.55386068439071 0 0 0
67 1 4.221004597490581 12.208162073553758 4.203940872966501 0 0 0
165 1 6.8694149369575666 9.399375653551752 3.9163537239497734 0 0 0
331 1 10.69748831052981 10.782828748688791 5.548263650396292 0 0 0
195 1 9.605608142391237 12.173169009097206 4.059982568611714 0 0 0
322 1 14.736947859430177 12.217962240562063 4.248320768113726 0 0 0
459 1 16.461247365451566 11.01051352617247 5.3839543418433395 0 0 0
450 1 20.424986909332194 12.24952054778129 4.058747847824442 0 0 0
69 1 1.5617414721497214 15.14081444029759 4.107119059805038 0 0 0
78 1 2.726519283346314 13.544649715644677 5.362938284954845 0 0 0
197 1 6.911626871606632 14.882420878249794 3.943434535660138 0 0 0
206 1 8.355255012931647 13.630111363490364 5.363349310670528 0 0 0
324 1 12.251035950430868 15.050010293377984 3.9779438582766447 0 0 0
333 1 13.591568693291501 13.761978406058553 5.515845566678249 0 0 0
452 1 17.544505685132865 15.092383098240923 4.117241273602577 0 0 0
461 1 19.076413637711127 13.628211091397276 5.406478867118353 0 0 0
99 1 4.113760841367137 17.64830422873241 4.018948928304448 0 0 0
236 1 5.503958718709027 16.17362514483224 5.522534923311274 0 0 0
363 1 9.737212144837017 17.75883945989821 4.159588231146018 0 0 0
366 1 11.191203224658137 16.551342157485216 5.626040822549754 0 0 0
354 1 15.088061282206851 17.550551293914125 3.9221603731801338 0 0 0
491 1 16.437702347831245 16.50186500338331 5.423929682829013 0 0 0
108 1 0.013651840856713449 16.281404539211017 5.4269545238466215 0 0 0
482 1 20.329782801367397 17.787834585711725 4.294993442076538 0 0 0
110 1 2.788394970844059 19.096426870845665 5.301403185598973 0 0 0
101 1 1.292940664081141 20.41477364772567 4.098441397305581 0 0 0
12 1 21.712429054116477 21.689428917893125 5.585891361725404 -1 -1 0
140 1 5.448254663887148 0.01918117603974313 5.403787760125585 0 0 0
227 1 8.359033594099824 18.977130521018843 5.5502408365050595 0 0 0
238 1 6.866962054213629 20.241298556325997 4.225443486513932 0 0 0
267 1 12.452201851500677 20.297276142764133 4.264184176846569 0 -1 0
484 1 17.764317811370965 20.455251967890838 4.109502349209263 0 0 0
395 1 16.034866948054056 21.215168436776075 5.5188795596930875 0 -1 0
493 1 19.25325067932164 19.33663638984336 5.509995770813504 0 0 0
15 1 1.4066385361928493 1.2990183342671529 6.8176472415943445 0 0 0
138 1 5.286298933826401 2.6832051083651756 8.24423519762516 0 0 0
143 1 6.833588813937724 1.3437920767880778 6.856193568375492 0 0 0
144 1 8.285443396866297 21.727331247447694 8.202884659844475 0 -1 0
270 1 11.344805934662485 2.2675829256188313 7.6422222088092875 0 0 0
398 1 17.241148497384636 1.1934759236663928 6.668026119662047 0 0 0
393 1 16.120434568300027 2.324625874261134 8.5114668846736 0 0 0
10 1 21.675115892925728 2.739631164404016 8.099453804869798 -1 0 0
48 1 2.634019072565795 5.5137198850766405 8.455753665654903 0 0 0
9 1 4.114349954103573 4.0424340259950196 6.996123959397867 0 0 0
176 1 8.266440081787442 5.287581118475053 8.21445272090862 0 0 0
137 1 9.645533067978462 3.804558469170952 6.751790260229767 0 0 0
264 1 14.68166417697215 3.529864423854313 6.758437140382782 0 0 0
303 1 13.73833668880077 5.090133046965772 8.059822995905405 0 0 0
431 1 18.89326478742508 5.351254408291982 8.211014578983653 0 0 0
392 1 20.103688037890596 3.920339146937531 6.835149539222234 0 0 0
47 1 1.3377035970095006 6.717277035267626 6.80564001123682 0 0 0
42 1 0.19706281260331282 8.048122435106444 8.38163155537238 0 0 0
170 1 5.565613332956342 8.041149754541655 8.287083692424007 0 0 0
175 1 6.87787053093532 6.693149504792003 6.886434163616235 0 0 0
297 1 10.799143138767228 7.984036008804406 8.276846668481591 0 0 0
302 1 12.088848864154434 6.622825832470316 6.838698199301269 0 0 0
169 1 9.434255312357308 9.419335866645044 6.987819874629823 0 0 0
430 1 17.456622238868412 6.6664803919757345 6.794478175680535 0 0 0
425 1 16.288709847089677 8.134054091226897 7.979141936292771 0 0 0
80 1 2.605225765087152 11.020010998518948 8.260682324265652 0 0 0
79 1 1.2925344605376934 12.173334967304145 6.737734655865995 0 0 0
41 1 4.0121769805208105 9.474383822016934 7.072003882344676 0 0 0
208 1 8.107711578946605 10.909276558681263 8.144058691114683 0 0 0
207 1 6.998574062702335 12.245794964396095 6.868463638332916 0 0 0
334 1 12.262085820232286 12.287497569259205 6.919726031025493 0 0 0
296 1 15.103402376254694 9.597009479162882 6.662448805015831 0 0 0
335 1 13.693211981820987 10.93881736562952 7.999859753115531 0 0 0
462 1 17.762230389128437 12.271054531599207 6.978047685847648 0 0 0
424 1 20.676804737802644 9.223261838203081 6.80200310131106 0 0 0
463 1 19.169147423798627 10.765361248734944 8.053831438013267 0 0 0
74 1 0.08540641093618362 13.45519891253442 8.114508825476108 0 0 0
73 1 4.200632965893391 14.922052581024769 6.818577341504604 0 0 0
202 1 5.452602003569106 13.479734130908577 8.095405246956526 0 0 0
201 1 9.760490625135025 15.035665845058931 6.8851689094584625 0 0 0
329 1 11.069842643661 13.500194387148392 8.315893888169597 0 0 0
332 1 12.479063759909616 15.058149153227163 9.525865306415552 0 0 0
328 1 15.104664897424813 15.045726186927679 6.730468995182562 0 0 0
457 1 16.300996220129104 13.753794376728557 8.113077457886014 0 0 0
460 1 17.731582491418084 15.126491786172608 9.671803677309825 0 0 0
456 1 20.33307603275795 14.922636200777747 6.752770579886888 0 0 0
111 1 1.5122157605891808 17.658518315711746 6.810728568029564 0 0 0
112 1 2.7636504323064615 16.3110794951829 8.236471667526022 0 0 0
239 1 7.003885086403565 17.475623917301114 6.976089739075539 0 0 0
240 1 8.500266220080176 16.14545192341644 8.406735389852251 0 0 0
361 1 12.612808536887965 18.118665639698907 6.822215447145185 0 0 0
367 1 13.78244021359798 16.467514781980395 8.141373045830889 0 0 0
494 1 17.687042448471125 18.045657489052186 6.797801539766241 0 0 0
495 1 19.12922583403738 16.372934384618883 8.100758739090931 0 0 0
16 1 2.850277355930591 21.634714674291768 8.185077501634783 0 -1 0
106 1 21.598812638243267 18.836358275285868 8.13721227276313 -1 0 0
234 1 5.383356073151634 18.972630688168632 8.316611786197782 0 0 0
105 1 4.169283496783525 20.330075686611096 6.783530156415095 0 0 0
233 1 9.82565342252154 20.481703140672447 7.014981501560179 0 0 0
364 1 11.269286757837241 19.325226663998873 8.602407470728417 0 0 0
365 1 14.33611048116723 19.177471499483747 5.493769265963268 0 0 0
360 1 16.030176768414126 19.678312897346384 7.69342407331321 0 0 0
399 1 18.833881225255865 0.05140479904281747 8.170897604502898 0 0 0
488 1 20.340991404150063 20.59481203520446 7.085845383450338 0 0 0
22 1 2.7939459401431535 2.6256322661875546 11.01404823666133 0 0 0
23 1 1.3838672996788302 1.1214982371742266 12.148119590584141 0 0 0
11 1 4.156784951934757 1.2198927151590697 9.549899102186453 0 0 0
148 1 5.626269629787217 21.749301081780832 10.758593869752293 0 -1 0
151 1 8.20209723632482 2.6329594465282584 10.719680829985224 0 0 0
152 1 6.845327838947307 1.3248143507287258 12.220556427253914 0 0 0
265 1 9.831838430306457 1.1603115969686804 9.631321313120042 0 0 0
278 1 12.348584390949881 1.4570787864458525 11.957244151599678 0 0 0
266 1 14.05277001234819 2.3320946147218375 10.535158453343685 0 0 0
403 1 17.533908171109335 1.4777515128604417 12.289586248876232 0 0 0
492 1 16.09292890668583 0.37394617600822644 10.623824147833702 0 1 0
394 1 20.26338636799078 1.499201640782079 9.475541052162178 0 0 0
406 1 18.98946423833882 2.7467619154898153 10.800203469209091 0 0 0
13 1 1.364547148085948 3.907259224210571 9.576046580607384 0 0 0
400 1 0.11511496518088649 5.378493265820986 11.021743969777113 1 0 0
180 1 5.431117648210143 5.426257358514241 10.894190589851474 0 0 0
17 1 4.193185084543773 4.0090663181244075 12.10559735585751 0 0 0
141 1 6.8458482450385585 4.07578228222466 9.499070936921717 0 0 0
268 1 12.41095697627611 3.6934361129016238 9.413002401208148 0 0 0
145 1 9.455756240992955 4.037371020440727 12.2269775886204 0 0 0
307 1 11.018099169181129 5.185967481423088 10.791178969586658 0 0 0
277 1 14.938243909780821 4.077940042710032 12.091137594680912 0 0 0
396 1 17.710107680055792 3.8883850245485028 9.288979212823488 0 0 0
435 1 16.493605799126644 5.467417718628019 10.825833362004435 0 0 0
405 1 20.35186386553753 4.003625202641958 12.229889524987602 0 0 0
54 1 2.7542130035272177 8.093096628806098 11.082554133944209 0 0 0
43 1 4.1090461246087004 6.898295619653007 9.757742627447168 0 0 0
182 1 8.048562359453285 8.150464126300806 10.752030535305675 0 0 0
183 1 6.824484630847371 6.769377877604813 12.17884582084617 0 0 0
173 1 6.709346150988888 9.654611735266675 9.447270888327106 0 0 0
171 1 9.561263065305441 6.712937738573818 9.738496947079248 0 0 0
310 1 12.185147879359347 6.6866440210643985 12.07362435731564 0 0 0
177 1 9.492162769268766 9.417223141022513 12.057732795750248 0 0 0
298 1 15.026680224201147 6.799005749840264 9.483767829531264 0 0 0
309 1 13.620683852393539 8.107382561334466 10.750047114345614 0 0 0
304 1 14.970095778082658 9.44326531765021 12.17491635578388 0 0 0
438 1 17.82438051276974 6.815261226426793 12.350912092365652 0 0 0
52 1 20.448958695727242 6.623969416745954 9.605760251646531 -1 0 0
426 1 19.219105918474487 8.299419339915662 10.807053143158077 0 0 0
45 1 1.499538514246547 9.432610736736997 9.689637007225386 0 0 0
84 1 0.03185914349769676 10.881877816023827 10.986877058140744 0 0 0
49 1 4.155466906776759 9.537226308263833 12.199629129519327 0 0 0
75 1 4.048992076275678 12.266210192145387 9.519369199731926 0 0 0
212 1 5.310513877139023 11.0474843686388 10.838924504797559 0 0 0
215 1 6.9627155107937675 12.142543203844733 12.333452152723163 0 0 0
203 1 9.60793344845029 12.223041426899691 9.65143810264764 0 0 0
339 1 10.973399012313468 10.659681654441634 10.775362727768323 0 0 0
342 1 12.285667812949553 12.12101356595997 12.04492859075215 0 0 0
300 1 12.295551070020505 9.484340984708549 9.31581082551121 0 0 0
330 1 15.068939126701457 12.318638244152519 9.498069996603551 0 0 0
428 1 17.79343303074243 9.518958830849575 9.444699528066227 0 0 0
467 1 16.34963341482561 10.91826865965451 10.82557715877188 0 0 0
470 1 17.768577513837354 12.12772983474269 12.093438073198922 0 0 0
458 1 20.518991734601837 12.030231941708097 9.566241094505724 0 0 0
437 1 20.39853347675845 9.432198331158132 12.34660515391132 0 0 0
87 1 1.4274424893366244 12.223241731768745 12.274088151521868 0 0 0
77 1 1.2900533730614978 14.895213889279026 9.415556937425752 0 0 0
86 1 2.832891676884116 13.798254778963855 10.824876836118476 0 0 0
81 1 4.205212424067979 15.025652383274002 12.575163365181012 0 0 0
205 1 7.066017198775409 14.723531415986715 9.56600636167993 0 0 0
214 1 8.305967187994161 13.445349003632362 11.023521933821034 0 0 0
209 1 9.77789287305896 14.986314147614701 12.09774511037405 0 0 0
341 1 13.755894832721907 13.674180639754267 11.002687674851837 0 0 0
336 1 15.159746642609518 14.996486867249828 12.397452718110113 0 0 0
469 1 19.118263637319103 13.457303712918506 10.823165044543028 0 0 0
464 1 20.52803767166001 14.894438160814568 12.162772256073808 0 0 0
119 1 1.4293854657717784 17.771650840684593 12.257712817588889 0 0 0
116 1 21.648643335764653 16.554284111735996 10.956875462242698 -1 0 0
107 1 4.044074872447686 17.59889139627104 9.687948462567311 0 0 0
244 1 5.5930819769862445 16.30973703987277 11.025082640194547 0 0 0
247 1 6.888374059075201 17.913597667981726 12.298975758372789 0 0 0
235 1 9.926137917062276 17.668124824869192 9.666346215543806 0 0 0
371 1 11.26036413535514 16.40770386007255 11.06191472075693 0 0 0
374 1 12.45154017101095 17.95983065831748 12.243438726846119 0 0 0
362 1 14.825531447020332 18.18164394835592 9.328824553795712 0 0 0
499 1 16.173642020823994 16.684653287329773 10.922080477119286 0 0 0
502 1 17.733359899642455 17.750431082840848 12.205654734162408 0 0 0
490 1 20.29213694263347 17.691007409591826 9.544924216359659 0 0 0
109 1 1.2106315845896378 20.31925559573058 9.382726870079109 0 0 0
118 1 2.648849962662726 19.066739921939973 10.840361690199526 0 0 0
20 1 21.699608014201818 21.67749103808695 10.707365262731933 -1 -1 0
113 1 4.216432773018715 20.378393198442126 12.22807478138201 0 0 0
237 1 6.964422217949948 20.338139341844276 9.397939407468543 0 0 0
246 1 8.434025971871021 19.137512476208602 10.806844965051413 0 0 0
139 1 11.297674627278274 21.218022457050168 10.617196746247988 0 -1 0
275 1 9.632657157934897 20.605392283225825 12.156441455636127 0 -1 0
373 1 13.238714008865806 19.434345758084234 10.581940657024983 0 0 0
368 1 14.823947291355323 20.58074479879197 11.973595793325524 0 0 0
489 1 17.219391591791148 20.571910744050424 9.315199030609618 0 0 0
501 1 18.775198251968437 19.33890734056076 10.658769105249702 0 0 0
496 1 20.28459663392477 20.35013878635887 12.087881329624377 0 0 0
18 1 21.664788795159627 2.4671046325839368 13.480662660577277 -1 0 0
24 1 2.7044075737509634 21.60558216833838 13.56892405550373 0 -1 0
19 1 4.107151302585938 1.368909967740564 14.696569057209631 0 0 0
146 1 5.5112935267471235 2.622102096507372 13.504801481756509 0 0 0
241 1 8.306863481365685 0.08680491551218239 13.727700419288997 0 1 0
147 1 9.692562748053927 1.4646099200914802 14.90178657980358 0 0 0
273 1 10.928107534640846 2.610680934564115 13.386684520486027 0 0 0
274 1 14.89940180850411 1.337359952515697 15.098660443448692 0 0 0
279 1 13.654799506764089 0.10744494283724038 13.421731920675478 0 0 0
401 1 16.148307874025473 2.7850482689161393 13.821133478527138 0 0 0
402 1 20.346762425660426 1.201786875405755 14.958667106843627 0 0 0
407 1 18.978790513471882 21.679772927271998 13.505301552822978 0 -1 0
21 1 1.3917606240274143 3.8617974398995933 14.771325992979865 0 0 0
56 1 2.669680978082986 5.1630575933006035 13.42196829954967 0 0 0
149 1 6.790498976733953 4.222467128445774 14.849382841711193 0 0 0
184 1 8.168742106619732 5.489039207544321 13.465274482239035 0 0 0
276 1 12.072584373957332 4.088374076462697 14.783191662383889 0 0 0
272 1 13.537943064132087 5.515034989635581 13.661354686670986 0 0 0
404 1 17.733192268423995 4.017652828525741 14.992657573279097 0 0 0
439 1 19.045478307292132 5.465387205602819 13.579272291330222 0 0 0
55 1 1.347543164328231 6.689384282074541 12.307053323768375 0 0 0
51 1 3.840611956984746 6.760038796767089 14.854630040724427 0 0 0
178 1 5.3319943171991095 8.182976048369873 13.596301770346258 0 0 0
179 1 9.574602790839274 6.779459793350225 15.001696397249209 0 0 0
305 1 10.803177051257327 8.099973686723256 13.426909383156415 0 0 0
311 1 15.003237467754364 6.793847738460519 15.087932853621755 0 0 0
433 1 16.26662446739863 8.133821836663586 13.59365123131246 0 0 0
432 1 21.76597171240086 8.072224238671152 13.540061521637556 0 0 0
434 1 20.4850877832574 6.6470503996306585 15.012106983267987 0 0 0
53 1 1.3913369257302017 9.600924461780352 15.102681287599353 0 0 0
88 1 2.783844948018392 10.813527324250401 13.768359841346415 0 0 0
83 1 4.169191540772052 12.1692157100453 15.043126884099426 0 0 0
181 1 6.923241883429007 9.39437424846865 15.04842823734515 0 0 0
216 1 8.414581371003088 10.943716191511847 13.607073110779593 0 0 0
211 1 9.694822872119477 12.306734895480481 15.077553454061968 0 0 0
308 1 12.315655670257089 9.448894553100391 14.772060195466175 0 0 0
343 1 13.457880521587699 10.891412296454282 13.505977055818303 0 0 0
338 1 15.012461483454281 12.116130262672955 14.819937172178683 0 0 0
436 1 17.67797632564165 9.465729846391808 15.060729958406432 0 0 0
471 1 18.914719913473732 10.822976679362396 13.745980883594145 0 0 0
85 1 1.5074494758406438 15.072626224258604 14.858860243236009 0 0 0
82 1 0.03312598501100818 13.80144567733354 13.378771850308993 0 0 0
210 1 5.576341403843262 13.49045188690068 13.74054393063747 0 0 0
213 1 6.930680063503194 15.032614765422473 14.898242951267601 0 0 0
337 1 11.05316648071152 13.7624008671044 13.550794381607961 0 0 0
340 1 12.292137073656946 15.166075836999134 14.796719942972876 0 0 0
465 1 16.540819814722255 13.501631286474629 13.757947053045367 0 0 0
468 1 17.93122320275462 14.88762264821179 14.991235974347827 0 0 0
466 1 20.58326662799886 12.215948212312238 14.816214050376969 0 0 0
120 1 2.874537280653676 16.49427804239952 13.616160909312743 0 0 0
115 1 4.318767380495912 17.718121309172083 14.953429947024176 0 0 0
248 1 8.346093157041269 16.314159316000918 13.431024887230334 0 0 0
243 1 9.738157510743314 17.82153074453807 15.02877761241847 0 0 0
370 1 15.078969905144184 18.007596135686313 15.023049760700285 0 0 0
375 1 13.838087666054635 16.57572322607908 13.671429892901784 0 0 0
503 1 19.249464454184228 16.3127238869365 13.565248708221729 0 0 0
498 1 20.535643347725827 17.735058712417608 14.769491858550849 0 0 0
117 1 1.5155655206358922 20.365453183291745 15.069386499885969 0 0 0
114 1 0.06641387806891785 19.225004642948385 13.454153975944726 0 0 0
242 1 5.421907281419377 19.04827382536309 13.603034998264079 0 0 0
245 1 6.721683151708104 20.32125695430228 14.911669669737538 0 0 0
369 1 10.950804825236927 19.138138918327325 13.526627330971555 0 0 0
372 1 12.28228303748382 20.584874165024612 14.807420166224095 0 0 0
497 1 16.18316176093537 19.16879984524971 13.355183940491857 0 0 0
500 1 17.473928466523063 20.566763836533354 14.902141180170034 0 0 0
31 1 1.3045630568997193 1.4731530245434699 17.747714510477493 0 0 0
30 1 2.6663798660293874 2.744593558473888 16.22321132676348 0 0 0
156 1 5.176067299217045 21.756136450576456 16.117954372042036 0 -1 0
159 1 6.763574469827239 1.242306517640964 17.373585264005612 0 0 0
158 1 8.184815346836544 2.881516610569573 16.213579564719307 0 0 0
286 1 12.220493814484863 1.279062527702666 17.64538683431498 0 0 0
285 1 13.551349705467103 2.7924167880209674 16.3278622716859 0 0 0
414 1 17.72604465760805 1.1852087610284732 17.834856444964476 0 0 0
411 1 16.185904808983146 0.0109333095695483 16.268755257087843 0 0 0
413 1 19.049847841934348 2.536880324078521 16.422088295018 0 0 0
28 1 21.75577939613183 0.02122407228102574 16.342184438264727 -1 0 0
25 1 4.1104718884702915 3.918144748210706 17.638815556174194 0 0 0
188 1 5.453167025000773 5.597622732950033 16.199456902742174 0 0 0
153 1 9.579103746690278 4.159924633354331 17.67349244175893 0 0 0
315 1 10.913346245500541 5.495085152439493 16.4500486131384 0 0 0
280 1 14.73872881762597 3.917887790837845 17.745528747453072 0 0 0
443 1 16.165419576184615 5.211483087232351 16.42319806579446 0 0 0
60 1 21.757641376271618 5.131436894398225 16.209145571108323 -1 0 0
408 1 20.178763802126728 4.02653726088758 17.619774355940987 0 0 0
63 1 1.3707267394837213 6.548620653688755 17.82279161975431 0 0 0
62 1 2.641160606227873 8.028909676744032 16.336993479270276 0 0 0
190 1 8.14061019998122 7.901808862898059 16.347281185075126 0 0 0
191 1 6.775252884495458 6.7047701932254204 17.750004802835583 0 0 0
318 1 12.27285913525721 6.832680049580499 17.73775526442457 0 0 0
306 1 13.490961851786103 8.168068151483235 16.316391073259403 0 0 0
446 1 17.457017678920153 6.850499989929723 17.741215574091886 0 0 0
445 1 18.96752766052275 7.963408253213207 16.26292304914369 0 0 0
95 1 1.391406896740835 12.340323111277606 17.650626323231283 0 0 0
92 1 21.758343366174635 11.003630861573086 16.525885314910507 -1 0 0
57 1 3.912134667094807 9.381886454983606 17.715811886666344 0 0 0
220 1 5.459899527770785 10.73313139041329 16.478405821605037 0 0 0
223 1 6.675284875081988 12.21883295274318 17.724082879064586 0 0 0
185 1 9.393013515815689 9.362659090687425 17.451515298194536 0 0 0
347 1 10.99342738947302 10.78575751214546 16.244599606184554 0 0 0
351 1 12.224851169156326 12.140300376358788 17.698452688706634 0 0 0
317 1 14.882719443323927 9.390402342631596 17.88278733794119 0 0 0
475 1 16.048739692553426 10.620114627220758 16.306326681782163 0 0 0
478 1 17.54503927248112 11.99789364473472 17.515365772881406 0 0 0
440 1 20.419494518291046 9.393699151205976 17.5796183412414 0 0 0
94 1 2.816925231836708 13.574662058778014 16.114604167840344 0 0 0
89 1 4.016538280652779 15.049233663932865 17.39355189744218 0 0 0
222 1 8.195834817036141 13.632059751047745 16.470482248232724 0 0 0
217 1 9.712187661595651 14.897647871614893 17.677718423587148 0 0 0
344 1 15.019299604962766 14.794387772940965 17.548448121790987 0 0 0
349 1 13.630018363009256 13.497559304488325 16.124306262965415 0 0 0
477 1 19.136492254228134 13.294741696628295 16.182158878702282 0 0 0
472 1 20.42193236552552 14.767993108162699 17.614773946101998 0 0 0
127 1 1.3249456252352978 17.634845976809576 17.70280993112688 0 0 0
252 1 5.5478625872325855 16.239683535637734 16.289374428863358 0 0 0
255 1 6.915000081783984 17.6689728555225 17.662401611870557 0 0 0
379 1 10.864334758557906 16.268505145738274 16.301100089230747 0 0 0
382 1 12.454794704680905 17.631956046413407 17.55410275694143 0 0 0
150 1 17.93481011649748 17.731763913033234 17.787189447547703 0 0 0
507 1 16.569589045406442 16.294223561020583 16.33752736316164 0 0 0
124 1 21.697993963689285 16.21167566805468 16.107597742329137 -1 0 0
126 1 2.7956410722590044 19.043507353824182 16.428655562212043 0 0 0
121 1 4.242916351293036 20.508397350419585 17.714230565477667 0 0 0
254 1 8.083929373644724 18.950019228949596 16.274364419641014 0 0 0
283 1 10.908065685161796 0.04917265309567043 16.235476579915314 0 0 0
249 1 9.436680916598716 20.39064964952601 17.73257241486338 0 0 0
381 1 13.559275414173003 19.194862215473563 16.24050651615641 0 0 0
376 1 14.878611523507999 20.417104728765448 17.626708231471266 0 0 0
250 1 19.026619453510918 19.168556838351762 16.183253251712955 0 0 0
504 1 20.535898809547124 20.32308257711305 17.645646341843616 0 0 0
26 1 21.69385889339138 2.6349288341328 18.953914874213055 -1 0 0
32 1 2.7302021199749036 21.547799365873477 19.15705345979015 0 -1 0
132 1 5.470727602302019 0.032159481073811946 0.034579944634452395 0 0 0
154 1 5.487054433769239 2.5921465593142323 18.872138605381565 0 0 0
27 1 4.023958648441158 1.189346893444681 20.511587258522056 0 0 0
155 1 7.977185661554035 2.6608690574802303 0.061520495208995385 0 0 1
259 1 9.500956108609401 1.2752408847317123 20.55531960904688 0 0 -1
281 1 10.808028552691866 2.700787097973143 19.143697327088198 0 0 0
136 1 11.033121690300927 21.521107513410453 0.12579516801683624 0 -1 0
261 1 13.506256885846842 2.6887011687227274 0.15588038079005723 0 0 0
282 1 14.89611379514744 1.3645500443559997 20.41560587364579 0 0 0
409 1 16.178532723584564 2.625767897243518 19.0096846347034 0 0 0
410 1 20.54126112926674 1.2766854430233199 20.447937658804392 0 0 0