LAMMPS data file via write_data, version 10 Sep 2025, timestep = 10000000, units = metal

502 atoms
1 atom types

0 21.800341 xlo xhi
0 21.800341 ylo yhi
0 21.800341 zlo zhi

Masses

1 28.085

Atoms # atomic

3 1 1.5695433862551542 1.395488891896088 1.4158258457840187 0 0 0
377 1 0.4097682131053938 2.8909989060746906 2.928177587903462 1 0 0
6 1 2.824006099555394 0.12431527784359588 2.7437730654355366 0 0 0
5 1 2.766191571958415 2.822059846516519 21.69017418548188 0 0 -1
43 1 5.284400231349605 2.763038737385537 2.9388096555480923 0 0 0
129 1 6.597255985509036 1.3861506696348147 1.5539972815129113 0 0 0
128 1 8.174336901239148 3.0672506834656046 0.12546956516294117 0 0 0
253 1 12.202866974899036 1.4593649709100724 1.550083708871239 0 0 0
125 1 10.939260762690294 2.6977471642107713 2.7830603643049723 0 0 0
250 1 10.725713251820487 21.784153923065 0.23634071265096743 0 -1 0
347 1 13.916935032984254 0.26593509155338424 2.6880006219947536 0 1 0
376 1 17.579164417989407 1.3725413459603697 1.271740083428303 0 0 0
379 1 16.562063323324864 2.709430726346057 2.883020390977558 0 0 0
375 1 19.164627817231036 2.7651208818840787 0.18783039722692726 0 0 0
381 1 19.3177916221466 0.05969793277000284 2.624950682943814 0 0 0
33 1 0.22139565454351737 5.537905982643677 0.07498998920643689 0 0 0
1 1 3.86407932009996 3.978751910810007 1.5084740251826962 0 0 0
156 1 5.332303866507597 5.309482118778871 0.22611789458245216 0 0 0
160 1 8.049692304887143 5.632340928919711 2.772020089820439 0 0 0
124 1 9.739537555847868 4.101974179700414 1.5391267959108232 0 0 0
282 1 11.002382183722737 5.273024022421738 0.09020491328727501 0 0 0
248 1 15.013986723002917 3.9576078034171567 1.5267876316696016 0 0 0
286 1 13.781593938175233 5.543672050091925 2.9590729169216345 0 0 0
420 1 20.47168595050901 4.183940923104029 1.4877246434429972 0 0 0
409 1 19.10887713721604 5.581647422661801 2.88331366609852 0 0 0
37 1 1.817628253038686 6.702386176349173 1.6457214633065462 0 0 0
35 1 2.977926353014055 8.159288578402732 21.787207182426414 0 0 -1
157 1 5.538656478801445 7.8041428098445875 2.999701259136557 0 0 0
32 1 4.0912695551316896 9.243609539068592 1.6048724883267624 0 0 0
159 1 6.653691512753655 6.807216807500602 1.2373504114654275 0 0 0
285 1 12.397957180763393 6.74142509480656 1.6087264055891295 0 0 0
280 1 10.78668886557159 8.227785433685286 3.0778376820021967 0 0 0
284 1 13.682674340378782 8.260576182186576 0.12163049094740694 0 0 0
413 1 17.71238915235782 6.7213794736260075 1.4233319471917123 0 0 0
408 1 16.503958388903214 8.136984078232095 2.9290798924594195 0 0 0
435 1 18.857204002904403 8.285121330988323 0.14381238509859612 0 0 1
36 1 0.24861481405781358 7.827003965974395 2.8890918455527 0 0 0
66 1 1.4309091910762497 12.258842723829856 1.615520714122301 0 0 0
67 1 2.6365955002678905 10.84140293629887 2.8772644791767124 0 0 0
191 1 8.04991530102927 11.037767624848367 2.5868516598426154 0 0 0
187 1 6.80552449255255 12.259873701984896 1.1461677046509722 0 0 0
154 1 9.541072064647832 9.595310544113362 1.477813513749978 0 0 0
317 1 12.542985999807055 12.173519236442207 1.5569799947040603 0 0 0
279 1 15.319322762403969 9.549685761240605 1.4655077273176147 0 0 0
318 1 13.903234154378621 11.01690855189962 2.946671541364291 0 0 0
445 1 17.858652194048094 12.314698254868594 1.3319409334885637 0 0 0
412 1 20.625462649727698 9.291078531732282 1.7834537732706086 0 0 0
446 1 19.04217300757713 10.936633858600402 2.951648012361105 0 0 0
63 1 0.22702001526140148 10.584123545077405 0.23498665183134576 0 0 0
65 1 2.6854237983129345 13.556431394580184 0.15889704608201427 0 0 0
441 1 0.06739273438910232 13.770104661170093 2.770146504423177 1 0 0
61 1 3.928106804183578 14.914494418214407 1.4976258196734613 0 0 0
185 1 5.510559443634413 13.631224490358232 2.5233031365539533 0 0 0
189 1 9.457719112660728 14.883397460603817 1.4098529244716593 0 0 0
184 1 10.905754529095883 13.517444138209521 2.6437238338653932 0 0 0
311 1 15.194832826742015 14.916393439706129 1.3948104304169926 0 0 0
440 1 16.50335449159432 13.709105681725886 2.776290292834927 0 0 0
439 1 20.308882636819416 15.275345479372012 1.614493745431574 0 0 0
444 1 19.389922319830948 13.574038496597613 0.20819373398937913 0 0 0
98 1 1.3385339439422532 17.76397042269696 1.4475858398871304 0 0 0
99 1 2.7442889824880012 16.53046650359239 2.776124366897742 0 0 0
95 1 21.711017518522087 16.441491436712568 0.11087563292517619 -1 0 0
222 1 6.7507609439399 17.65758708241255 1.2695377188849626 0 0 0
223 1 7.981495555611184 16.382417079279843 2.4673376906813553 0 0 0
346 1 10.978377796104262 16.266757325236455 0.19889291270314438 0 0 0
349 1 12.371245858647935 17.669123408632778 1.4814243366712443 0 0 0
350 1 13.636201989798833 16.239707089859717 2.8273474087800263 0 0 0
477 1 17.66943863750715 18.052817518820596 1.5975453242898778 0 0 0
474 1 16.34560119257301 16.44220018505694 0.28157373163505284 0 0 0
478 1 18.98020133865478 16.54327171297959 3.003132702477289 0 0 0
92 1 4.025367036090834 20.427808055650118 1.4494642955750732 0 0 0
217 1 5.383707839750158 19.134359745723707 2.6608209908821845 0 0 0
221 1 8.023720273795018 19.139221385696363 0.015361977658187698 0 0 0
216 1 9.46697222812846 20.36243271968714 1.698030422362342 0 0 0
344 1 10.902909626715648 19.119466151964243 2.8677375335377815 0 0 0
343 1 15.188052251500322 20.547501193084067 1.2349097062503809 0 0 0
472 1 16.31457463778004 19.502035975464498 2.7841504793575704 0 0 0
93 1 0.10269078001502704 19.352156601692183 2.5245725250016644 0 0 0
471 1 20.63657197823777 20.5221414262403 1.0410439638064517 0 0 0
96 1 0.10683148069876225 0.07433318415981244 5.562995157372293 0 1 0
12 1 3.723962857863468 1.8548691490015703 4.336908691205663 0 0 0
2 1 5.056999594573984 0.09173978730316554 5.32662922659226 0 0 0
130 1 8.06270328154151 0.10282599505422399 2.8086795870460364 0 0 0
136 1 7.984602443205361 2.9003812351424663 5.307550780333421 0 0 0
135 1 9.467115641402408 1.4593956705961197 4.166268986115226 0 0 0
254 1 15.139128807475595 1.646690222771588 4.288635980273178 0 0 0
260 1 13.504626791660348 2.695068250566398 5.504260510214096 0 0 0
249 1 16.309842788431588 0.17579445345910458 5.518810687040722 0 0 0
10 1 20.612410226716623 1.4637655861210155 4.163381456085322 -1 0 0
382 1 19.275037171272484 2.841717382917229 5.623020266903331 0 0 0
44 1 3.141202663115672 5.439068142443304 3.3309473915460925 0 0 0
414 1 1.9096846877200042 3.6471106122252275 4.559060264221831 1 0 0
38 1 4.875360042483712 6.258626723727294 4.579744794542098 0 0 0
127 1 6.617686212849558 4.418240245086382 4.195296781659099 0 0 0
290 1 10.828426002073249 5.543272819548375 5.587237959850157 0 0 0
251 1 12.350225112531033 4.252778984195378 4.1058164844186384 0 0 0
389 1 17.844872736836592 4.108595572269559 4.125848733149166 0 0 0
418 1 16.24170534199622 5.197682949255992 5.399742953678748 0 0 0
407 1 1.4342346433819033 9.243485227090705 4.48358421611099 1 0 0
165 1 8.108618160900866 8.361042636986527 5.625733868334455 0 0 0
155 1 9.453605581905734 6.886868462876849 4.22979120054497 0 0 0
281 1 15.169734455913149 6.855121415519902 4.179297683055524 0 0 0
292 1 13.815693312360544 8.209510419956937 5.440478502096638 0 0 0
411 1 17.632697822077738 9.469046529434417 4.275552803333148 0 0 0
4 1 20.53895219517344 6.576561094125755 4.393053405687151 -1 0 0
421 1 19.24266938176636 8.107412955259722 5.554634433176531 0 0 0
198 1 5.3470374942213015 10.69534851861951 5.588718372329407 0 0 0
62 1 4.348935271114472 12.216299933620009 4.043973896836904 0 0 0
195 1 6.78452185299385 9.414249010636619 4.1098088123304475 0 0 0
186 1 9.520679926317893 12.172130303709709 3.9856247219485312 0 0 0
283 1 12.415260644539352 9.53167239303279 4.23663856624735 0 0 0
322 1 11.040821150829284 11.0797636686859 5.558096855078188 0 0 0
313 1 15.175229449361746 12.401705254301428 4.228082771752276 0 0 0
450 1 16.217357989033218 10.850093233463415 5.545199708477706 0 0 0
34 1 21.528862569832068 10.685645751343358 5.561347226971949 -1 0 0
71 1 20.34863855305708 12.285098749451283 4.337385122460959 -1 0 0
64 1 1.207212557496077 15.186248595627395 4.222350806029016 0 0 0
73 1 2.8509970383142673 13.532843037020147 5.213894244446519 0 0 0
188 1 6.949209558836853 14.821749254265177 4.009663738726381 0 0 0
197 1 8.2761078698769 13.31007977577986 5.348040216351004 0 0 0
312 1 12.071050839003544 14.852417626034367 4.094260200963347 0 0 0
324 1 13.683499693331248 13.678506195205127 5.554489541573664 0 0 0
443 1 17.689601654561333 15.074945546820844 4.160291967222072 0 0 0
447 1 19.0746271054303 13.851634721705267 5.559035183544907 0 0 0
94 1 4.131770024205599 17.92101576860993 4.174046008389837 0 0 0
227 1 5.664596412397968 16.37276733502878 5.149551254638168 0 0 0
218 1 9.204535275461668 17.891227740861854 3.8736856846260985 0 0 0
315 1 10.615942405304391 16.349452601127417 5.167024972574809 0 0 0
345 1 14.926686252571683 17.93791306058138 3.906780751520507 0 0 0
482 1 16.348072536567134 16.63313449244695 5.373245684622585 0 0 0
103 1 21.769417979564622 16.557407695593593 5.571991853831673 -1 0 0
473 1 20.311366895468247 18.04222639812137 4.206083191261245 0 0 0
7 1 1.5197186933776565 20.641613764521068 4.03431583963948 0 -1 0
105 1 2.702068441069241 19.35259410850395 5.546374145172309 0 0 0
229 1 8.149527999052976 19.053590498466505 5.404611515302869 0 0 0
220 1 6.646438526747788 20.501221182653588 4.159310822409826 0 0 0
258 1 10.995506236141905 0.10313561598159807 5.337620844393881 0 0 0
356 1 12.40603805780155 20.65443242650871 4.174543854810175 0 0 0
357 1 13.671487101779077 18.974545592469347 5.35958005360938 0 0 0
475 1 17.690176609438634 20.74854755789573 4.150711649628988 0 0 0
484 1 18.886598055270326 19.305854269656383 5.622388959621553 0 0 0
13 1 0.5732116515671235 1.488154712869218 7.536924164747152 0 0 0
113 1 2.393304907589412 0.4916722520329513 8.64821808600235 0 1 0
8 1 4.6818395248506155 1.9851061615599044 8.770461203961679 0 0 0
133 1 6.309677744593484 1.384363027852489 6.817393217375542 0 0 0
132 1 8.249777251146298 21.735994221190488 7.918023482458996 0 -1 0
259 1 10.706694524070414 2.891651041442916 8.01662187212311 0 0 0
261 1 12.027970199110277 1.4351921087315385 6.99497521006178 0 0 0
262 1 13.647261715580797 0.017403378373881395 8.108710240587166 0 0 0
384 1 17.941507174494593 1.1085557171329934 6.894491457704765 0 0 0
386 1 16.078320805133668 2.5082963455613707 8.157389552954786 0 0 0
390 1 20.116049696857388 1.041751465362514 8.81604959319366 0 0 0
383 1 0.9088414903095746 3.7854565551059336 6.5920657373194675 1 0 0
11 1 1.5101208542048181 4.631796132361179 8.842182034981962 0 0 0
167 1 7.852892202212259 5.338663019480381 8.060396640351128 0 0 0
134 1 6.590099138669261 3.7024862550661126 9.291727082702506 0 0 0
131 1 9.414786585560694 4.2321931800150026 6.60846788484505 0 0 0
257 1 14.961679617425839 3.79788433649963 6.697299189520614 0 0 0
255 1 13.523460353576533 5.248479917026256 8.206189302436453 0 0 0
388 1 20.738193767533755 4.877563104478235 6.088106405892228 0 0 0
422 1 19.344059378982717 5.496501636183754 7.819852627853422 0 0 0
41 1 3.3654179525319066 9.35300771878172 6.264585086269035 0 0 0
39 1 3.325354696845994 6.198187977656599 9.15031071479632 0 0 0
166 1 4.201921001567263 7.124533526075995 6.908231035246648 0 0 0
163 1 6.577052982606596 7.411384488895246 7.203291499880665 0 0 0
288 1 10.971716130082658 7.925184955167222 8.049138814776612 0 0 0
293 1 12.450070349408822 6.6933821034886565 6.789005696769489 0 0 0
287 1 15.0439811085422 9.529222073024064 6.8759037265637195 0 0 0
426 1 15.057742690497589 6.547877898774718 9.349805667284869 0 0 0
289 1 16.296165296990445 8.153271844532144 8.24428334912509 0 0 0
416 1 17.6660998896433 6.908120412358513 6.60119214678436 0 0 0
415 1 20.65688439698061 9.051617021682057 7.458009219804767 0 0 0
75 1 2.4660642933487162 10.646142363551489 8.167505102551628 0 0 0
42 1 1.277701248416838 12.221962421720525 6.686755185312901 0 0 0
199 1 8.199153472661422 10.92563905150878 8.324106101835207 0 0 0
193 1 6.929597719055068 12.026775388817939 6.837290066483805 0 0 0
161 1 9.583045324044823 9.620325331068239 6.837745385648939 0 0 0
325 1 12.33949734591838 12.536231745797654 7.0182025696381904 0 0 0
326 1 13.609109685508537 10.762757088129987 8.241091153409592 0 0 0
452 1 17.670138166580045 12.217036278708495 6.740583306290388 0 0 0
453 1 19.182464536831954 11.053087458746855 8.100820137664293 0 0 0
68 1 5.358113142588234 13.561968210025553 8.108766996031394 0 0 0
107 1 4.216470880085929 14.88405741858122 6.5094954946210875 0 0 0
192 1 9.519754682941514 14.883800595529609 6.7381502170127785 0 0 0
320 1 10.804881976309375 13.98327010399974 8.40662162084026 0 0 0
319 1 14.89523360024351 15.131398297913908 6.922579984413703 0 0 0
448 1 16.225002799542004 13.568364979862553 8.153495775723066 0 0 0
74 1 0.14208240058331711 13.799911555320381 8.085412868612607 0 0 0
486 1 20.382249280880064 15.076876027573869 6.839381392136893 0 0 0
106 1 1.371104252269338 17.851370801152644 6.939238279789088 0 0 0
102 1 2.983945646352279 16.37863505967477 8.188021294032955 0 0 0
230 1 6.770239730941019 17.63994375388084 6.789661695781366 0 0 0
231 1 8.192142152353071 16.41331046257027 8.139889585876492 0 0 0
354 1 12.241281406142601 17.570340579075822 6.749054653761535 0 0 0
358 1 13.62873823107559 16.41357007493854 8.268132391348185 0 0 0
485 1 17.782278436596446 17.756371057783507 6.841942565258216 0 0 0
451 1 19.076663430265192 16.43551834358379 8.403382876107129 0 0 0
137 1 5.3660031985877525 19.262827233287634 8.107325586204034 0 -1 0
14 1 3.71835183848815 20.737222256500544 7.18342840146535 0 -1 0
228 1 6.761636171495266 20.576348225554383 9.322939796336806 0 0 0
224 1 9.656888584237201 20.33534236144732 6.63673952495777 0 0 0
352 1 10.957607995349637 18.989427227315865 8.057400809585094 0 0 0
351 1 15.097318692466544 20.436619829379186 6.794990301968338 0 0 0
480 1 16.52046686710931 19.220735984427225 8.199257390892921 0 0 0
101 1 21.73919455848954 19.081722272897135 8.197548658686326 -1 0 0
479 1 20.128896883591434 20.570596957805694 7.03438176745752 0 0 0
21 1 1.3028698740897748 1.462853166956854 11.846290574934722 0 0 0
9 1 2.568742887163016 2.812700609785912 10.089841930977686 0 0 0
141 1 5.394097844075317 0.17268241474284493 10.479452337599701 0 0 0
143 1 7.972750007843983 2.661116287152241 10.865240356556049 0 0 0
144 1 6.73387518715097 1.1879886005823446 12.138385438612158 0 0 0
256 1 9.398101918769088 1.3830674678005876 9.298488235160518 0 0 0
269 1 12.349437016183897 1.1381885644842984 12.137857057689043 0 0 0
266 1 11.004614089015725 0.020885366922680504 10.614070475810063 0 0 0
397 1 14.901471305508267 1.2144594857598041 9.522534162221394 0 0 0
268 1 13.592300101641944 2.6645390649418217 10.836643501949611 0 0 0
385 1 17.790145542162488 1.1114424318741454 12.226911836155885 0 0 0
483 1 19.062557421414198 2.4967866413745963 10.66290353160911 0 1 0
18 1 21.79023294783485 21.716500602771646 10.571816101921385 -1 -1 0
171 1 5.076147988563439 5.195644243346213 10.263537554335771 0 0 0
15 1 4.15474406669716 3.673079001816373 11.809380501352253 0 0 0
138 1 9.256831291336578 4.056455971784795 12.312847394018094 0 0 0
294 1 11.980499105862654 4.028756433576084 9.567158056898698 0 0 0
298 1 10.57749414464479 5.357578269811132 10.909770335774448 0 0 0
263 1 14.834795643569361 3.8904161796137333 12.107764513841243 0 0 0
387 1 17.904640516691543 4.056633225013754 9.159272443597464 0 0 0
40 1 16.34068891277775 5.298611287224101 10.631804835376554 -1 0 0
48 1 21.667829400935936 5.558060952210825 10.458181144190771 -1 0 0
391 1 20.22594141582687 4.010928852605797 11.956038912639912 0 0 0
51 1 2.303980248730782 7.9020291549459225 10.461404217760068 0 0 0
46 1 1.3029834617681053 6.57150880776351 12.228194141721277 0 0 0
45 1 3.7166431766364405 9.375433077740555 11.948008215736204 0 0 0
164 1 6.855362647376857 9.063447339229272 9.032355311131708 0 0 0
173 1 7.907351515565153 8.099555148050879 10.847210302336874 0 0 0
174 1 6.2158859930783334 6.608641744883459 11.832365237119415 0 0 0
162 1 9.353556790893453 6.619349217542657 9.46758415385627 0 0 0
301 1 12.18614618389971 6.886400879525251 12.175010281519725 0 0 0
300 1 13.678775972365514 8.196148737811772 10.756347218100666 0 0 0
429 1 17.623807625082755 6.68539952272621 12.023312598161835 0 0 0
417 1 20.572462496347843 7.135454151804941 8.910394313639035 0 0 0
428 1 19.24404461844203 7.934719802918532 10.835753673556644 0 0 0
50 1 1.0111104103312707 9.332873472573095 9.22158324614737 0 0 0
82 1 1.3489758129378122 12.317018292864068 12.284280347292546 0 0 0
70 1 4.061260107831569 12.05863034498825 9.526200712203334 0 0 0
203 1 5.462116714315795 10.36270462752028 10.764437750257269 0 0 0
206 1 6.480435359682141 11.94945820205351 12.216971652684615 0 0 0
194 1 9.48060808569554 12.3835652359551 9.75854880512421 0 0 0
168 1 9.357807170387732 9.4037026521892 12.164810272739617 0 0 0
330 1 10.722449706239498 10.707055461409638 10.898895639210863 0 0 0
333 1 12.299645748420359 12.113060909193408 12.091245670499907 0 0 0
291 1 12.166174690083013 9.388394698293798 9.395157818054553 0 0 0
321 1 15.021285270460073 12.126437625755237 9.602915524662501 0 0 0
295 1 15.052058006713676 9.464675322008107 12.195337168326297 0 0 0
419 1 17.824863079641542 9.619155063225188 9.758687541083013 0 0 0
458 1 16.514182121001916 10.771112550933005 11.062784346230234 0 0 0
461 1 17.9151834190075 12.322813061814626 12.213893059487146 0 0 0
449 1 21.67602514673156 10.679006803270788 10.971490126024245 0 0 0
69 1 20.533146132210465 12.317960978884258 9.641497454226785 -1 0 0
72 1 1.4914879345827257 15.093437154950786 9.571705904736213 0 0 0
81 1 2.742514012483318 13.556286168788175 10.828412979947274 0 0 0
76 1 3.9985135839250363 15.319073055990636 12.159822437415036 0 0 0
196 1 6.84339856430035 14.952123052381323 9.5902386530717 0 0 0
205 1 7.852525978394802 13.4715344758151 11.039484576010063 0 0 0
323 1 12.380919859689161 15.139652069190724 9.701077549650499 0 0 0
332 1 13.835679215125431 13.715424213122075 10.963048058575618 0 0 0
327 1 15.226649320070564 15.185828667057624 12.383680133443677 0 0 0
460 1 17.56837992947296 14.881571271882114 9.557780368796655 0 0 0
454 1 19.092598941249758 13.82848981413637 10.941185736964236 0 0 0
455 1 20.396536331894175 15.100760897234146 12.406228476841433 0 0 0
114 1 1.4637114991023312 17.725803201552218 12.342171817072048 0 0 0
111 1 0.12256628137933845 16.225539102819997 11.011805740742295 0 0 0
100 1 4.241476574538828 17.790608465304913 9.69506502128137 0 0 0
235 1 5.608909946892702 16.511019563313305 11.005855676408581 0 0 0
238 1 7.001307829699479 18.002889690514085 12.319940961699167 0 0 0
226 1 9.680655869640855 17.63736139247101 9.545227888782254 0 0 0
362 1 10.910951774078923 16.297210684890054 11.094027848903231 0 0 0
365 1 12.173826349322555 17.784826907421948 12.452647378972397 0 0 0
353 1 14.980996186475965 18.00415763613571 9.38525888551427 0 0 0
490 1 16.511263797668793 16.58447780103677 10.75912143026412 0 0 0
493 1 17.842898632002512 17.58402307109658 12.26283670905034 0 0 0
481 1 20.756490644094423 17.70553951024514 9.705925882012435 0 0 0
104 1 1.484645613540775 20.27970018545436 9.620569395826596 0 0 0
225 1 2.8803081443988945 19.100971079638207 11.036414841462621 0 0 0
108 1 3.997582073713745 20.698670534020003 12.151590732643008 0 0 0
237 1 8.17453571960892 19.166702018713025 10.642731354468387 0 0 0
232 1 9.585832169841828 20.471474442848702 12.030519257797803 0 0 0
355 1 12.347648248216885 20.441782634674535 9.43254597680184 0 0 0
364 1 13.650721112088487 19.041360627493816 10.939699618635395 0 0 0
359 1 14.958030074907994 20.310442434217798 12.173495811590278 0 0 0
396 1 16.533151310994747 21.53430124268169 10.77919052350782 0 -1 0
394 1 18.26675699492289 20.604416593888036 9.121411882463033 0 -1 0
492 1 19.255784190082 19.132268313783168 10.893544719349167 0 0 0
22 1 2.741866897411075 0.16421277324516836 13.408142151008208 0 0 0
17 1 4.13101357469905 1.4188558044718642 14.964633498449027 0 0 0
20 1 5.395237990138818 2.642229900855245 13.439439078415965 0 0 0
140 1 9.372866270246766 1.073073005109658 14.906254307176843 0 0 0
264 1 10.715826902953975 2.4166044441793417 13.421831883916985 0 0 0
265 1 14.818158646788778 1.3061884127610972 14.91549963325993 0 0 0
392 1 16.18580652539781 2.426000868217889 13.476044742237693 0 0 0
16 1 21.662868549115654 2.867736296141371 13.36067529221263 -1 0 0
393 1 20.456222401445224 1.1891834019410228 14.810270906747851 0 0 0
19 1 1.4132589452474238 4.038915322644226 14.734520074747511 0 0 0
52 1 2.6930008084877923 5.24595624564025 13.31152441807818 0 0 0
139 1 6.732594412242128 3.9842000929956662 14.72990589685395 0 0 0
175 1 7.812414698000723 5.439654586230344 13.478430095822334 0 0 0
267 1 12.144957504603514 3.938415502214735 14.706676679240768 0 0 0
302 1 13.555181672811909 5.273774813703167 13.415475618862493 0 0 0
395 1 17.643194620721655 3.934223239555428 14.886070273913967 0 0 0
430 1 18.945332876252504 5.491493877063128 13.536589705655791 0 0 0
423 1 0.09358653550303231 8.227149087149051 13.856535694822625 1 0 0
169 1 5.23717319281826 8.125587053772088 13.261314463512305 0 0 0
47 1 3.8950710021047703 6.6253795330046 14.71539667021185 0 0 0
170 1 9.307934214095294 6.6666397868716425 14.82855709094867 0 0 0
296 1 10.608045804170972 8.326673945214178 13.615305696894394 0 0 0
297 1 14.97311378850144 6.61328319815457 14.74041786308668 0 0 0
424 1 16.38382346069815 8.044301100945885 13.516898653071413 0 0 0
425 1 20.280417432324185 6.741999803517258 15.092087282261001 0 0 0
49 1 1.470804030056793 9.563473998045536 14.979446389268412 0 0 0
83 1 2.7423839914404122 10.856146939211378 13.514903917487537 0 0 0
78 1 3.957139115216139 12.338090451599978 15.0845194051016 0 0 0
172 1 6.486126259655201 9.376007727879033 14.684719922446549 0 0 0
207 1 7.948798505364575 10.748621877604277 13.540720864598244 0 0 0
299 1 12.172636554585674 9.747329245304869 14.888199871880655 0 0 0
202 1 9.396829181916653 12.073830590733094 14.99881451595374 0 0 0
334 1 13.749081920823029 10.928028953288688 13.54735653214132 0 0 0
329 1 15.14295786181266 12.433599712056 15.04530005504954 0 0 0
427 1 17.462755749433136 9.620000832351229 15.191869952938784 0 0 0
79 1 20.457767524075226 9.47281564454031 12.550921060247529 -1 0 0
462 1 19.04381704227725 10.954651321416224 13.843539825730852 0 0 0
80 1 1.1815795959481015 14.839802371088131 15.190054215704803 0 0 0
201 1 5.211406582894045 13.591330273628147 13.484448011856912 0 0 0
204 1 6.665884676696157 14.948216810901945 14.895238172673974 0 0 0
200 1 9.477576818633004 14.80719905865404 12.39232677922673 0 0 0
328 1 10.79847607364693 13.168933506568598 13.592087300047668 0 0 0
331 1 12.23676133791578 14.947905833527285 14.995750063937706 0 0 0
456 1 16.475230578630807 13.632301878336927 13.613961096967502 0 0 0
459 1 17.966736991765686 14.753707720247121 15.142523163811465 0 0 0
457 1 20.460267188904922 12.246212510145218 15.07446888881666 0 0 0
77 1 21.663626980751786 13.555906836349001 13.701252366936213 -1 0 0
115 1 2.4335550672407815 16.174479049280475 13.815298105524223 0 0 0
110 1 4.187619529007826 17.586306334934577 15.101715247495504 0 0 0
239 1 8.164706946530227 16.294167090291452 13.720765313734875 0 0 0
234 1 9.477457930328908 17.60825503107318 15.113508944105256 0 0 0
361 1 15.17379013037532 17.839567120496387 14.97449012291518 0 0 0
366 1 13.627853853988514 16.468083208134473 13.79298701854823 0 0 0
494 1 19.152071800140725 16.43303792004157 13.783250458618038 0 0 0
489 1 20.52231672625984 17.63537556945523 15.114667083230021 0 0 0
112 1 1.5524875699630354 20.569539867529674 14.794639069532279 0 0 0
233 1 5.42888064359388 19.055489763965944 13.540633325864723 0 0 0
145 1 7.980981750153589 21.630837478744024 13.533582995025467 0 -1 0
236 1 6.847565880742973 20.42721170681985 15.001514126566578 0 0 0
360 1 10.695363281029644 19.067575453557172 13.715979030259673 0 0 0
363 1 12.126908847333317 20.382868596952814 14.928814656526042 0 0 0
270 1 13.577694278514302 21.521905812974126 13.530899662189611 0 -1 0
488 1 16.351730481969206 19.0139370157794 13.43297112574936 0 0 0
491 1 17.669188363501945 20.12914261243108 14.949430721138617 0 0 0
487 1 20.349778954428196 20.50844896174876 12.23851435434707 0 0 0
109 1 21.70052638419179 19.124104290560783 13.415989974252316 -1 0 0
398 1 18.942321963443856 21.63732732396936 13.639782840425736 0 -1 0
29 1 1.2470567136316735 1.756507578081731 17.595392355240048 0 0 0
28 1 2.6633024892255306 2.831663267998335 16.25169452340596 0 0 0
149 1 5.555621883047697 21.793046780899438 16.378003062045863 0 -1 0
152 1 6.833940239187315 1.2226391413076783 17.884235859250655 0 0 0
151 1 8.133672391530798 2.7428024732270555 16.29862092287619 0 0 0
274 1 10.948473387026231 0.1709072670084187 16.117769531441173 0 0 0
277 1 12.111291384118424 1.1923161182838646 17.76885159952962 0 0 0
276 1 13.462237529356637 2.679959855485984 16.458183468691203 0 0 0
405 1 17.562464537886267 1.2685726485936295 17.487814590205716 0 0 0
402 1 16.129652228761387 21.56241866216022 16.297081328144824 0 -1 0
404 1 19.362363289201426 2.5956644968802403 16.217128428323996 0 0 0
26 1 0.1858904718153696 0.29243458754769236 16.22458372573876 0 0 0
142 1 5.449385754800662 5.369792205173712 16.109454383659244 0 0 0
179 1 4.061459700347873 4.049679084074953 17.594770979740574 0 0 0
146 1 9.516154814304008 4.079598624140718 17.754028774025013 0 0 0
306 1 10.830718042126762 5.318054175024847 16.125510152074927 0 0 0
271 1 14.950466274444974 4.243769256660662 17.77507424328756 0 0 0
434 1 16.30076721669415 5.2968074120090884 16.14216385942039 0 0 0
56 1 21.683417811225688 5.252003471739806 16.340973024517353 -1 0 0
399 1 20.26407590919593 4.1802473220405165 17.665629387096352 0 0 0
59 1 1.1552611549526877 6.533344568290777 17.78136895783268 0 0 0
58 1 2.5935919437752957 7.812376016748826 16.419668248787506 0 0 0
53 1 3.8669943870417907 9.313081626207374 17.83636035325756 0 0 0
182 1 6.747925543789055 6.594052303725596 17.485066513969613 0 0 0
181 1 8.079489247550486 8.085251682819013 16.222308277953854 0 0 0
309 1 12.169273932275264 6.616091605673528 17.429747857539986 0 0 0
176 1 9.477958418190228 9.242704422812507 17.59495475221687 0 0 0
308 1 13.539679487470316 8.021494262012904 16.02248152519368 0 0 0
303 1 14.865109459010608 9.450379098153844 17.555370008420738 0 0 0
438 1 17.424524708965482 6.725316415290542 17.69140084682795 0 0 0
436 1 18.78057308217518 8.134140230959078 16.419364501255068 0 0 0
90 1 1.1888609778806303 12.237151594600839 17.91189953683275 0 0 0
87 1 21.776669411088424 10.853951204732999 16.272360256158677 -1 0 0
211 1 5.27317620682331 10.65510338157252 16.3465218488814 0 0 0
214 1 6.657639925263366 12.127140682364464 17.674514665989527 0 0 0
338 1 10.80900206538586 10.921190348199426 16.21179182547303 0 0 0
341 1 12.31944508387984 12.195716096375019 17.797407778393666 0 0 0
466 1 16.27365236056954 11.012318268097228 16.4586328075791 0 0 0
469 1 17.55738186731368 12.095388572299585 17.922559469540055 0 0 0
431 1 20.422222577038124 9.552471934592639 17.681789845916366 0 0 0
89 1 2.4913124400790942 13.439723269132214 16.530277223006436 0 0 0
84 1 3.950785386033767 14.719609071850734 17.892732638485846 0 0 0
213 1 8.104254747097798 13.54362787265865 16.399845172585742 0 0 0
208 1 9.4776607229676 14.89709900018991 17.65258558709482 0 0 0
335 1 15.078118064584718 15.05081364924382 17.931267840827683 0 0 0
340 1 13.815145244308903 13.65080757920843 16.403501331999262 0 0 0
468 1 19.100243921790995 13.412854117375803 16.676878115165035 0 0 0
463 1 20.39376111179572 15.01435733861297 17.92138586373257 0 0 0
122 1 1.4237962388066763 17.802020628856795 17.842856233138928 0 0 0
243 1 5.4037527993940975 16.08436663204264 16.449220460154446 0 0 0
246 1 6.629354601400511 17.593068511905653 17.693047578853697 0 0 0
370 1 10.727882387242198 16.2488630222843 16.367830680426685 0 0 0
373 1 12.167082084992336 17.659091920883537 17.8712987076556 0 0 0
498 1 16.448563456846507 16.143361967447852 16.20940612140002 0 0 0
501 1 17.779921651558045 17.512231473375195 17.664354942576534 0 0 0
119 1 0.22959338706419175 16.276349978337503 16.505830248446873 0 0 0
121 1 2.852421560111041 18.968894006887375 16.384830978340258 0 0 0
116 1 4.0307979846487525 20.608183781050066 17.575286523426517 0 0 0
245 1 8.15900608994298 19.193144357903673 16.439947697213558 0 0 0
240 1 9.60173541056393 20.570390745550633 17.781057276522134 0 0 0
372 1 13.479379645715772 18.915028994958913 16.2906047205004 0 0 0
367 1 14.79625706521496 20.061246842352208 17.798801059087232 0 0 0
500 1 19.15480275692939 18.971024080316813 16.33587660598451 0 0 0
495 1 20.548310034007514 20.555511821877467 17.633677760455715 0 0 0
25 1 2.7776749570483017 0.1906526749942577 18.961418058550585 0 0 0
126 1 5.26482925106502 0.021849775542934838 0.1028380601066789 0 0 0
147 1 4.175324734036178 1.4755406600204113 20.420308600639885 0 0 0
23 1 5.415350732356431 2.738014035305701 18.95918202884413 0 0 0
148 1 9.550354596651216 1.3693446829908824 20.700595460989856 0 0 0
272 1 10.841896964349788 2.4873727619941093 19.26467992298616 0 0 0
252 1 13.673118973354088 2.551202344906485 0.13369514578040764 0 0 0
273 1 14.85716263070068 1.3578802375211751 20.28668627382218 0 0 0
378 1 16.32794459710695 21.773948603517614 21.567385294683643 0 -1 -1
400 1 16.46291146565247 2.6784504627049768 19.00376071014894 0 0 0
24 1 21.632862832814464 2.971342613268099 19.231123318881604 -1 0 0
401 1 20.411501379070092 1.3538460331204552 20.66497441183453 0 0 0