LAMMPS (10 Sep 2025)
OMP_NUM_THREADS environment is not set. Defaulting to 1 thread.
  using 1 OpenMP thread(s) per MPI task
Loaded 1 plugins from C:\Users\lmike\AppData\Local\LAMMPS 64-bit 10Sep2025 with GUI\plugins
# LAMMPS input generated from LammpsInputFile with pymatgen v2025.10.7

# STYLES
units metal
atom_style atomic

# SET UP CALCULATION
read_data starting_config.dat
Reading data file ...
  orthogonal box = (0 0 0) to (21.800341 21.800341 21.800341)
  1 by 1 by 1 MPI processor grid
  reading atoms ...
  502 atoms
  read_data CPU = 0.004 seconds
pair_style sw
pair_coeff * * Si.sw Si
Reading sw potential file Si.sw with DATE: 2007-06-11
velocity all create 1200 682926

# CALCULATION PARAMETERS
fix f1 all nvt temp 1200.0 1200.0 $(100.0*dt)
fix f1 all nvt temp 1200.0 1200.0 0.10000000000000000555
thermo 100000
thermo_style custom step temp press spcpu cpuremain

# RUN CALC AND WRITE OUTPUTS
dump d1 all custom 100 state_dump id type x y z vx vy vz
run 10000000
Neighbor list info ...
  update: every = 1 steps, delay = 0 steps, check = yes
  max neighbors/atom: 2000, page size: 100000
  master list distance cutoff = 5.77118
  ghost atom cutoff = 5.77118
  binsize = 2.88559, bins = 8 8 8
  1 neighbor lists, perpetual/occasional/extra = 1 0 0
  (1) pair sw, perpetual
      attributes: full, newton on
      pair build: full/bin/atomonly
      stencil: full/bin/3d
      bin: standard
Per MPI rank memory allocation (min/avg/max) = 3.116 | 3.116 | 3.116 Mbytes
   Step          Temp          Press          S/CPU         CPULeft    
         0   1200          -2114.7997      0              0            
    100000   1226.6289     -10161.27       574.90964      17220.098    
    200000   1149.3294     -11042.497      627.10509      16336.761    
    300000   1218.2552     -12528.659      790.37843      14870.907    
    400000   1193.468      -14735.557      685.9545       14536.973    
    500000   1225.5039     -12493.944      672.81169      14332.407    
    600000   1129.2758     -9753.0572      664.67219      14175.001    
    700000   1192.7374     -12138.423      670.09434      14003.409    
    800000   1274.3066     -12210.872      674.90723      13825.168    
    900000   1127.6137     -11555.637      682.5379       13636.861    
   1000000   1191.9158     -13216.18       682.83756      13456.334    
   1100000   1174.4086     -16265.911      687.23775      13274.417    
   1200000   1267.0582     -12742.278      681.95648      13106.832    
   1300000   1250.1932     -13605.921      681.80599      12942.686    
   1400000   1194.2797     -13688.35       685.17474      12776.607    
   1500000   1186.5987     -12225.652      693.02816      12603.84     
   1600000   1140.947      -12331.917      686.81889      12441.48     
   1700000   1194.9817     -13245.451      683.10905      12284.953    
   1800000   1187.6338     -12916.141      685.44053      12127.285    
   1900000   1262.8985     -13102.336      687.7476       11968.769    
   2000000   1248.8918     -14898.253      684.18661      11814.592    
   2100000   1192.919      -13466.513      670.55733      11672.354    
   2200000   1227.9198     -13574.138      670.66947      11529.401    
   2300000   1124.3662     -16531.324      682.85385      11377.007    
   2400000   1185.3459     -14332.554      686.20178      11222.845    
   2500000   1157.7236     -14058.103      680.98242      11072.709    
   2600000   1181.1442     -12061.495      688.82669      10918.067    
   2700000   1252.1909     -11636.29       686.36351      10765.534    
   2800000   1201.6745     -12335.194      680.19974      10616.885    
   2900000   1216.2559     -13534.685      682.77604      10466.99     
   3000000   1159.2996     -13502.873      686.73021      10315.356    
   3100000   1242.2572     -16230.026      685.87877      10164.513    
   3200000   1253.8203     -15354.585      674.74586      10019.097    
   3300000   1182.1559     -14397.004      682.28085      9870.1892    
   3400000   1216.0832     -13691.062      677.0287       9723.6261    
   3500000   1179.2098     -13739.449      673.08602      9578.6045    
   3600000   1204.8297     -14304.489      691.23812      9426.4499    
   3700000   1230.2146     -14196.16       683.91985      9277.3358    
   3800000   1186.2655     -13828.204      680.76894      9129.4784    
   3900000   1215.1386     -14725.323      685.89728      8979.9526    
   4000000   1168.9444     -15033.919      684.84534      8830.9493    
   4100000   1128.0514     -15021.267      685.79289      8681.8013    
   4200000   1188.0872     -16701.581      689.36176      8531.7695    
   4300000   1183.2794     -15259.288      683.82352      8383.5261    
   4400000   1152.1709     -14757.086      686.29006      8234.7051    
   4500000   1188.5855     -14935.478      687.4294       8085.7271    
   4600000   1244.4247     -13755.061      694.1241       7935.2547    
   4700000   1239.6375     -15332.854      692.5878       7785.4152    
   4800000   1163.6078     -14683.274      694.03943      7635.4757    
   4900000   1217.0136     -15402.767      692.94382      7486.0124    
   5000000   1187.8367     -16464.141      669.48543      7341.8117    
   5100000   1211.9321     -15163.129      681.63017      7194.8514    
   5200000   1289.1169     -16331.571      692.36865      7045.8005    
   5300000   1187.5603     -15529.405      691.32551      6897.1172    
   5400000   1223.1817     -13967.05       694.05387      6748.0989    
   5500000   1216.6928     -16629.792      689.12088      6600.1039    
   5600000   1283.7741     -15748.492      701.97503      6450.1241    
   5700000   1207.4159     -15493.319      686.35054      6302.8548    
   5800000   1216.857      -15469.268      689.173        6155.2075    
   5900000   1200.5995     -16413.569      690.36797      6007.472     
   6000000   1214.3116     -12913.378      687.50969      5860.2342    
   6100000   1223.5785     -14960.272      689.04955      5712.8471    
   6200000   1198.7049     -15128.335      694.52536      5564.8315    
   6300000   1197.8002     -14108.535      682.12625      5418.4811    
   6400000   1162.9414     -14970.903      695.95015      5270.4848    
   6500000   1184.9923     -17148.314      668.24921      5125.8284    
   6600000   1158.1553     -14870.361      684.28253      4979.2145    
   6700000   1246.2372     -13593.641      671.68329      4833.965     
   6800000   1184.0517     -16235.05       686.09045      4687.1375    
   6900000   1271.1128     -12651.44       686.39404      4540.3121    
   7000000   1266.4284     -14469.655      688.36868      4393.3402    
   7100000   1232.4121     -14518.336      689.13641      4246.35      
   7200000   1233.8391     -15132.246      693.94661      4099.0209    
   7300000   1241.9822     -15370.907      694.79635      3951.715     
   7400000   1233.8746     -14901.81       687.0817       3805.0683    
   7500000   1170.6359     -13859.433      681.80817      3658.8262    
   7600000   1228.7371     -14143.668      692.89326      3511.8318    
   7700000   1212.4045     -14573.164      687.3232       3365.2563    
   7800000   1249.8351     -13967.521      680.16968      3219.1401    
   7900000   1155.8375     -15465.255      687.10581      3072.6065    
   8000000   1224.8068     -14536.977      690.87867      2925.899     
   8100000   1205.9555     -14658.932      686.84512      2779.4395    
   8200000   1120.4372     -13425.781      682.68416      2633.1959    
   8300000   1211.3141     -12687.331      691.50825      2486.5637    
   8400000   1160.3296     -16235.146      687.37536      2340.1452    
   8500000   1257.1326     -12943.895      695.35562      2193.4542    
   8600000   1114.7617     -15220.297      690.42103      2046.9974    
   8700000   1176.591      -15357.029      690.73489      1900.568     
   8800000   1160.9621     -15579.892      687.93421      1754.2567    
   8900000   1186.3991     -13928.745      688.81534      1607.9436    
   9000000   1188.2203     -16555.082      689.62327      1461.6369    
   9100000   1059.9268     -16055.995      699.38958      1315.1586    
   9200000   1270.6868     -12831.353      706.39793      1168.6328    
   9300000   1216.0041     -14374.909      704.27001      1022.246     
   9400000   1237.5104     -14177.224      697.36507      876.04247    
   9500000   1217.3832     -14691.437      735.36222      729.50804    
   9600000   1194.9116     -14485.02       664.81029      583.79465    
   9700000   1280.5593     -13637.122      664.88821      437.9837     
   9800000   1204.022      -14099.823      680.35557      292.00928    
   9900000   1221.4711     -13786.196      696.99629      145.97907    
  10000000   1218.8951     -16518.922      700.76609      0            
Loop time of 14594.6 on 1 procs for 10000000 steps with 502 atoms

Performance: 59.200 ns/day, 0.405 hours/ns, 685.184 timesteps/s, 343.962 katom-step/s
99.5% CPU use with 1 MPI tasks x 1 OpenMP threads

MPI task timing breakdown:
Section |  min time  |  avg time  |  max time  |%varavg| %total
---------------------------------------------------------------
Pair    | 14311      | 14311      | 14311      |   0.0 | 98.06
Neigh   | 29.966     | 29.966     | 29.966     |   0.0 |  0.21
Comm    | 39.681     | 39.681     | 39.681     |   0.0 |  0.27
Output  | 139.5      | 139.5      | 139.5      |   0.0 |  0.96
Modify  | 59.259     | 59.259     | 59.259     |   0.0 |  0.41
Other   |            | 14.81      |            |       |  0.10

Nlocal:            502 ave         502 max         502 min
Histogram: 1 0 0 0 0 0 0 0 0 0
Nghost:           1405 ave        1405 max        1405 min
Histogram: 1 0 0 0 0 0 0 0 0 0
Neighs:              0 ave           0 max           0 min
Histogram: 1 0 0 0 0 0 0 0 0 0
FullNghs:        17526 ave       17526 max       17526 min
Histogram: 1 0 0 0 0 0 0 0 0 0

Total # of neighbors = 17526
Ave neighs/atom = 34.912351
Neighbor list builds = 42224
Dangerous builds = 0
write_data FINAL_STRUCTURE
System init for write_data ...
Total wall time: 4:03:14
