LAMMPS data file via write_data, version 29 Aug 2024, timestep = 10000000, units = metal

517 atoms
1 atom types

-0.02948090264859365 21.804290902648614 xlo xhi
-0.03406467868667825 21.80887467868668 ylo yhi
-0.0192347341643344 21.79404473416429 zlo zhi

Masses

1 28.0855

Atoms # atomic

5 1 1.3676983065151846 1.3442815489699305 1.4261662468708625 0 0 0
3 1 2.7229363735494068 0.02402661106970072 2.854221954011658 0 0 0
10 1 5.360706517050969 2.4418419895432906 2.866008617138591 0 0 0
13 1 6.739282524211843 1.2634296056102507 1.5090653805632042 0 0 0
12 1 7.928680612481139 2.727999297300289 0.022256512066241244 0 0 0
515 1 11.975101398220167 1.580246183381287 1.4629868736562124 0 1 0
18 1 10.658529540267452 2.6671399796785424 2.8968335497132345 0 0 0
108 1 10.893852357180513 21.763280323343917 0.028802158498059734 0 0 0
20 1 13.709696530082653 2.681255806210055 0.2299458989493123 0 0 0
29 1 17.50264801124034 1.0769718990357293 1.703296718686688 0 0 0
26 1 16.088396012521574 2.577111977526306 2.90963728210565 0 0 0
2 1 21.691347272027684 2.4724200496938344 2.9086046585333283 -1 0 0
27 1 19.08207541858657 21.57696081445209 3.0093168411978843 0 -1 0
1 1 0.016115701038589947 21.628513097840997 0.17176550903586144 0 -1 0
35 1 2.5720484373650616 5.511990899379585 2.8142382140534434 0 0 0
8 1 4.200528784641466 4.158177197602055 1.6318925885514184 0 0 0
41 1 5.329964374354238 5.5231501986175635 0.15650433949233938 0 0 0
43 1 8.012887574676384 5.390397929843389 2.9046912168345154 0 0 0
16 1 9.220248157465 3.9841842217660846 1.5431927892471666 0 0 0
49 1 10.582397178290295 5.444417695643904 0.042093193946395886 0 0 0
24 1 15.00337505172627 4.089567682335032 1.3567899692623002 0 0 0
51 1 13.426890028084012 5.346022553390157 2.619965706177789 0 0 0
57 1 16.339152671999162 5.551544242943065 21.78401677473078 0 0 -1
59 1 19.083028432046127 5.479300267530629 2.6385001479638626 0 0 0
32 1 20.386198280164308 4.006769751315718 1.3762142848764074 0 0 0
33 1 21.699794765913452 5.331150957232968 -0.0020852066676582126 -1 0 0
37 1 1.192095730312362 6.504226521129003 1.3713805772718202 0 0 0
42 1 5.165012928531919 7.9523024041149455 2.852956821817556 0 0 0
45 1 6.630708384802885 6.75374012634304 1.5600802970254828 0 0 0
44 1 7.7951279864327185 7.9616705474256335 -0.01594507494447921 0 0 0
50 1 10.84479153659032 8.091505148272539 2.659064712972517 0 0 0
516 1 12.120633382023339 6.742342869337015 1.4021606454577453 0 0 0
48 1 9.287363686312489 9.355343311418123 1.3673499628243238 0 0 0
52 1 13.392133622099403 8.040731879221154 21.78910149582327 0 0 -1
61 1 17.641860307264533 6.93475568478272 1.3874575899634454 0 0 0
58 1 16.32465689093979 8.08164241182899 2.7654102516848793 0 0 0
34 1 21.650478863996103 8.15316980540776 2.6871315640384856 -1 0 0
60 1 19.040888215531865 8.086687749392889 0.1418373183879685 0 0 0
67 1 2.5631592986051785 10.994897696353116 2.6236641236035956 0 0 0
69 1 1.2488152616078954 12.443094253971633 1.4916603517106206 0 0 0
40 1 3.8413774898821798 9.371108743037082 1.5693450346052455 0 0 0
73 1 5.394013163478261 10.6431788717907 0.26728783759143016 0 0 0
75 1 8.073364398418512 10.722389634777684 2.66549539968443 0 0 0
77 1 6.691567086541572 12.144709572258066 1.3791154500418517 0 0 0
85 1 12.279647735314457 12.21132003349439 1.4111967658652218 0 0 0
81 1 10.620848143325738 10.869426994967526 0.22186423707747022 0 0 0
56 1 14.806800558634691 9.466352090476887 1.346263644245887 0 0 0
83 1 13.52601308110843 10.889839752295291 2.9164354263215855 0 0 0
93 1 17.592579453214658 12.153829946707722 1.2777913269039787 0 0 0
89 1 16.435608462691558 10.624753987008283 0.04230587701298321 0 0 0
64 1 20.278417927275825 9.53131634828892 1.4409757178812994 0 0 0
91 1 19.01919828096384 10.946163468256865 2.7007474760362635 0 0 0
65 1 21.724642400115687 10.916777085181126 0.13636318057253358 -1 0 0
68 1 2.7948919604272175 13.624323211850681 0.17681375458602516 0 0 0
72 1 4.077434293582783 15.06426668689589 1.547705832958398 0 0 0
74 1 5.378195918674169 13.662444788747408 2.7323725705673274 0 0 0
76 1 8.174473175628624 13.522801308748972 0.16572706982047464 0 0 0
80 1 9.648358918797186 14.964427788620513 1.3180777128561891 0 0 0
82 1 10.916015785036528 13.479784649981491 2.757734078703754 0 0 0
88 1 14.862988180222885 15.083905840804483 1.1746422105943846 0 0 0
84 1 13.681642113806427 13.526786479175614 21.660666702260066 0 0 -1
90 1 16.309337759435365 13.68207421198757 2.6222570708535837 0 0 0
66 1 21.633738581831743 13.484800644180511 3.0945956068097904 -1 0 0
96 1 20.482538599075962 14.75733962824656 1.4866082373763567 0 0 0
101 1 1.1154977884727726 17.66627045705012 1.4294249191513546 0 0 0
99 1 2.6543944380534517 16.498337026007814 2.7686928076777555 0 0 0
514 1 5.547300867233219 16.18205240379252 0.19261705434042184 0 0 0
109 1 6.81928139099176 17.737751586791276 1.5498868467451707 0 0 0
107 1 8.354829968982251 16.32367455729261 2.7234155700864497 0 0 0
117 1 12.071602272323458 17.80557008856311 1.1496970293091404 0 0 0
113 1 11.008797244034705 16.40244347990479 21.6443662702538 0 0 -1
115 1 13.476578635702827 16.249339849391955 2.7069232097232887 0 0 0
125 1 17.768479774723072 17.616740616415218 1.6114198889284634 0 0 0
121 1 16.489194999707895 16.302853360292094 0.08877191626636098 0 0 0
123 1 19.16714485877925 16.026195080051817 2.880274605557571 0 0 0
97 1 21.780895457209017 16.342874197823757 0.08525020773119829 -1 0 0
100 1 2.7313112273518403 19.00981016032897 0.21504970041709015 0 0 0
9 1 5.518962973881699 21.71474555420815 0.08252843897831497 0 -1 0
104 1 4.105779160733308 20.4673619434109 1.4044236461177193 0 0 0
106 1 5.534261342669011 19.13535924497974 2.781201041892504 0 0 0
11 1 8.072200464167137 21.697964756139463 2.758509485574893 0 -1 0
112 1 9.418487669407602 20.56885288383693 1.2037273674400029 0 0 0
114 1 10.564813387101015 19.036230670400975 2.757402641446538 0 0 0
19 1 13.568981120538167 21.779180786134752 2.8221323659565094 0 -1 0
120 1 14.74088657499214 20.214219799194275 1.6659704933763213 0 0 0
116 1 13.593750968668967 18.945703405380577 -0.016182323461616552 0 0 0
25 1 16.20683666926032 21.52707423634971 0.2166386851477632 0 -1 0
122 1 16.3876234459349 18.828625235227584 2.795754151189523 0 0 0
98 1 21.790964347450938 18.95518076563916 3.005928992972676 -1 0 0
128 1 20.423223286071874 20.27760484042051 1.5287617687779291 0 0 0
124 1 19.168313491393366 18.96054573428258 0.21872518859748644 0 0 0
132 1 2.6109436023826094 2.5351253205246467 5.709460498629451 0 0 0
7 1 4.190348710179797 1.2473756516964964 4.390443670809764 0 0 0
137 1 5.379705030735218 21.708493824303492 5.699846650486029 0 -1 0
140 1 8.148650353545458 2.6716193727486846 5.5180246410674005 0 0 0
15 1 9.411463978375801 1.2139652392104192 4.1123955309652995 0 0 0
145 1 10.824659299169985 -0.0028162047577211524 5.541242808867198 0 0 0
23 1 14.835274223535933 1.2725014146763471 4.312552322204444 0 0 0
148 1 13.329024061905907 2.6400000399326338 5.537498683016479 0 0 0
153 1 16.225786892268715 21.746385482708472 5.484086035991877 0 -1 0
156 1 18.847860284565108 2.80590708669497 5.320643841896896 0 0 0
31 1 20.410107862957652 1.1502312116066082 4.331175100767348 0 0 0
6 1 1.4694633062305753 3.8605833757421713 4.208791554478541 0 0 0
169 1 5.4714538694694 5.337389949450035 5.431954651034554 0 0 0
14 1 6.847811761967001 3.7883120300170425 4.0897620613037295 0 0 0
177 1 10.61401756693359 5.3382423001956125 5.5703981485652125 0 0 0
22 1 12.078067766766956 4.01810948947201 4.190232649772327 0 0 0
30 1 17.503320904378114 4.110402850269309 3.8738992977784985 0 0 0
185 1 16.19687482928218 5.327335079352603 5.379987924153021 0 0 0
161 1 21.785637700762187 5.347289567066628 5.599495058993466 -1 0 0
164 1 2.456965523478264 8.323192917342608 5.628948026845904 0 0 0
39 1 3.928779229387791 6.843154225187951 4.354802825733318 0 0 0
172 1 8.059956604991624 8.077066874017842 5.596999336961322 0 0 0
47 1 9.428142612390927 6.962594903293881 4.258865499817505 0 0 0
55 1 14.827650961888324 6.726399804944172 4.04545871172801 0 0 0
180 1 13.313700295963097 8.192239524355125 5.34421462509349 0 0 0
188 1 18.977787468297283 8.1133326054359 5.4919686807099515 0 0 0
63 1 20.530472775002824 6.649890443290339 4.1377878751674 0 0 0
38 1 1.0450615587013723 9.617503701579553 4.090420422945426 0 0 0
201 1 5.336917611434886 10.910785634474907 5.413173591115422 0 0 0
71 1 3.9463381410036287 12.273675515821507 4.267089274728316 0 0 0
46 1 6.624717596296704 9.245540318526619 4.097220949487654 0 0 0
79 1 9.530999694420215 11.998463941488906 3.92709410253869 0 0 0
209 1 10.724356898879716 10.877570060536707 5.646393944057825 0 0 0
54 1 12.030992654626873 9.578298947756439 4.170713561744985 0 0 0
87 1 15.075389784077233 12.320949261610643 4.226884156213472 0 0 0
62 1 17.63847010570146 9.40678800824636 4.003336223683474 0 0 0
217 1 16.319574090240334 10.67479646624048 5.464548879932101 0 0 0
193 1 21.71962387554925 10.898979891723735 5.542935544743263 -1 0 0
95 1 20.26123997579531 12.055223725403703 4.349125116433747 0 0 0
70 1 1.384586445287203 15.158503981076716 4.070191368219065 0 0 0
196 1 2.7288009898482914 13.7976690143599 5.641282993810082 0 0 0
78 1 6.977798197925021 14.834964441350412 4.1489148405907095 0 0 0
204 1 8.229591383464053 13.440182122200778 5.463058334546001 0 0 0
86 1 12.099845263613727 14.929026151349479 4.049016835468751 0 0 0
212 1 13.468776729610354 13.55538412952432 5.438395467381334 0 0 0
94 1 17.494396050957892 14.94616322266059 4.283505031198112 0 0 0
220 1 19.079776384870073 13.575649947601784 5.5884131793345295 0 0 0
103 1 4.235356150505719 17.847244378044085 4.170495273212274 0 0 0
233 1 5.636068972636982 16.394582273498788 5.384358374123422 0 0 0
111 1 9.344045370195332 17.734262954504835 4.385403170716109 0 0 0
241 1 10.800463975328713 16.23223917889563 5.497919837878964 0 0 0
119 1 14.921464265866556 17.48014453416619 4.17062976106242 0 0 0
249 1 16.266023453615365 16.32384315371232 5.6415581799540435 0 0 0
225 1 0.014942542519712276 16.394221478482983 5.5226175380193965 0 0 0
127 1 20.40081109623131 17.493202423727475 4.194256935744609 0 0 0
228 1 2.6683276681315355 19.07672346169731 5.31631096865793 0 0 0
102 1 1.1741549761351269 20.497472399850817 4.1675065026826275 0 0 0
236 1 8.082704263396982 19.12479674452067 5.716831237565765 0 0 0
110 1 6.730212147715059 20.337218172916742 4.166507724411112 0 0 0
118 1 12.145383462583744 20.313217066641236 4.095102005309196 0 0 0
244 1 13.43262504957638 18.906238954393114 5.6309979288745655 0 0 0
126 1 17.54586702889254 20.323092353771674 4.234726266451711 0 0 0
129 1 21.693009372624775 21.699566892011465 5.630657482304976 -1 -1 0
252 1 19.035945339567153 18.880229639633217 5.464072428038215 0 0 0
133 1 1.1069159198012959 1.2668826373534767 7.072273913289085 0 0 0
138 1 5.22509442704997 2.855015349207437 8.338251764677274 0 0 0
141 1 6.729980064897881 1.342253475056496 7.097610033771704 0 0 0
139 1 8.085976136352418 21.666172883897733 8.32583151742191 0 -1 0
146 1 10.771623634992757 2.5333843455740257 8.365316205330334 0 0 0
149 1 12.266075546111413 1.0966288633894068 6.956993711821248 0 0 0
147 1 13.694102013037739 21.685074288714322 8.14155279506006 0 -1 0
154 1 16.158024995130077 2.700698577448389 8.18328541392383 0 0 0
157 1 17.66589982259197 1.3643655246258057 6.916810414940476 0 0 0
130 1 21.589806925951383 2.6660221997254636 8.295294994629957 -1 0 0
163 1 2.728659288843364 5.198059894465818 8.222365990782226 0 0 0
136 1 4.0084660472208204 3.993302063719967 6.788053101529338 0 0 0
171 1 7.993120448730839 5.34202605326801 8.37125058287123 0 0 0
144 1 9.244191603143374 4.126599160400725 7.058776755615038 0 0 0
152 1 14.728556466636176 3.9381186771415657 6.744796417484433 0 0 0
179 1 13.495223762278107 5.400953527119744 8.071834235351847 0 0 0
158 1 17.549075667919784 3.892444091031524 9.499505844883025 0 0 0
187 1 18.85527623568476 5.317705220852413 8.086183035322238 0 0 0
160 1 20.362162117036537 4.060766058527585 6.748292289136611 0 0 0
165 1 1.5204492950325164 6.674662477799225 7.064251620222946 0 0 0
162 1 21.792657012439477 8.065225666000796 8.287282973773559 -1 0 0
170 1 5.162169377968363 7.997138714352748 8.254977503703213 0 0 0
173 1 6.736990200724918 6.510402277412242 7.052499491045237 0 0 0
178 1 10.665943173201143 8.008100588706307 8.327611918263893 0 0 0
181 1 12.026417079603503 6.656065829729465 6.825531796036325 0 0 0
186 1 16.189663170436408 7.869754721881928 7.935037445452002 0 0 0
189 1 17.754341207324586 6.66115037012305 6.641792143521306 0 0 0
195 1 2.5535441834770105 11.006820030378726 8.253440146370048 0 0 0
197 1 1.2550948440151182 12.454992224078458 6.903045413145044 0 0 0
168 1 3.9719979291847283 9.448490467336157 6.89933208831567 0 0 0
203 1 7.988297471589243 10.948068038407259 8.256070489989 0 0 0
205 1 6.82563796864287 12.0542804750854 6.6419795283686875 0 0 0
176 1 9.473029190457416 9.526427476480706 6.945071234707758 0 0 0
213 1 12.154179553811815 12.159242653087157 7.054607636817017 0 0 0
184 1 14.873407260119373 9.471110005278273 6.986629986414811 0 0 0
211 1 13.248880401076388 10.752754546423581 8.271301089193948 0 0 0
221 1 17.816341849411668 12.159360926906418 6.790040668048772 0 0 0
192 1 20.460631149876384 9.425562969635902 6.780393483269745 0 0 0
219 1 19.301508890296596 10.824897886627191 8.231025552597368 0 0 0
194 1 -0.0198647707141113 13.802280375847008 8.478239299522299 0 0 0
200 1 4.1261086282654205 15.115862633440184 6.9150691773845825 0 0 0
202 1 5.502075108952994 13.549739456322724 8.055423692683227 0 0 0
208 1 9.441675006882127 14.977586155918143 6.944429556730463 0 0 0
210 1 10.935442354206865 13.657238735389571 8.191140367129432 0 0 0
216 1 14.917106639726141 14.824902358909911 6.910047673304159 0 0 0
218 1 16.31119841828571 13.492558565702824 8.298324779897094 0 0 0
224 1 20.44656328673227 15.003030493666381 6.790066103793981 0 0 0
229 1 1.2914263358404316 17.740767353757295 6.790523039036247 0 0 0
227 1 2.5297912851037045 16.47073054843202 8.224388150827876 0 0 0
235 1 7.867561504975079 16.530313961374166 8.214440819669054 0 0 0
237 1 6.622806086686004 17.848090125312027 6.847966438001508 0 0 0
245 1 12.091061219830447 17.572147400580075 6.998489868681872 0 0 0
243 1 13.664029745135888 16.272405902434684 8.354212517707174 0 0 0
253 1 17.614595238681666 17.696107906060508 6.944510252362379 0 0 0
251 1 19.088875176845487 16.310112748711013 8.27728467302042 0 0 0
131 1 2.695446840191692 0.015361440035843076 8.381322950904423 0 0 0
234 1 5.121388367172293 18.98367253930227 8.278062713825827 0 0 0
232 1 3.815923349417633 20.576170623207435 6.848471120891919 0 0 0
242 1 10.960807284392345 18.9569154628882 8.293914350281957 0 0 0
240 1 9.710072116892457 20.49036004199242 6.997435218802404 0 0 0
248 1 14.972452906943067 20.25199502830857 6.920808673248369 0 0 0
250 1 16.3346074162402 19.121814727532094 8.366400713848767 0 0 0
155 1 19.1293704863512 21.72672818559872 8.057381274119413 0 -1 0
226 1 21.589711384068515 18.888836725267712 8.405546067354875 -1 0 0
256 1 20.310481611317087 20.26862069259671 6.805860140975795 0 0 0
260 1 2.62550099711451 2.3017075755852177 11.256528740249784 0 0 0
261 1 1.2557900347823305 1.1325169035513105 12.585150773801889 0 0 0
135 1 3.997736806799488 1.3207427496560784 9.787702458744821 0 0 0
265 1 5.3335750976568 21.800721209539592 10.676307136486658 0 -1 0
268 1 8.277452819369275 2.5349085415069386 11.018775197012353 0 0 0
269 1 6.607056127746233 1.2264390441002715 12.219799885378622 0 0 0
143 1 9.458806985369149 1.1965919944873833 9.771074676370088 0 0 0
151 1 14.994603409129402 1.0536723466266893 9.362669330475313 0 0 0
276 1 13.386253635971327 2.3260111067833633 10.54734530179497 0 0 0
285 1 17.614171337809278 1.1350367095366038 12.214252570966991 0 0 0
159 1 20.336013322741795 1.206379611487831 9.54919716385785 0 0 0
284 1 18.946225236659146 2.4787634767630093 10.962317505610963 0 0 0
134 1 1.3568641626051416 3.6926322331830357 9.668312696526145 0 0 0
297 1 5.206991293240179 5.216138450817749 11.04145445596615 0 0 0
264 1 3.8869782302650853 3.9113142090952553 12.510325458309808 0 0 0
142 1 6.685683835443004 3.8951066500434455 9.607601560381342 0 0 0
272 1 9.501961596669533 3.892204280008142 12.333990580911731 0 0 0
305 1 10.684143839030472 5.241540149435281 10.915019206467317 0 0 0
150 1 12.091894540292875 3.842929122674509 9.45779364043696 0 0 0
313 1 15.355038360233516 4.57921319785331 10.480768961432812 0 0 0
314 1 17.55491258190543 4.580955701572275 12.456048759613083 0 0 0
289 1 0.11552560903779963 5.083281340278124 11.021996402751453 0 0 0
292 1 2.737770337260684 8.227716688431727 11.124463677556374 0 0 0
293 1 1.187088598709654 6.736980023145036 12.367784499910854 0 0 0
167 1 3.8534629829787788 6.730646304115701 9.796046501339056 0 0 0
300 1 7.772699147739527 8.068444155862347 10.819320214716715 0 0 0
301 1 6.514319751164083 6.599927287858588 12.296797796722286 0 0 0
175 1 9.346245690850782 6.57733530354744 9.709322116502086 0 0 0
309 1 12.080913147371671 6.911333650429664 12.22577095430271 0 0 0
183 1 14.738226949007341 6.937596134260677 9.47698058356281 0 0 0
308 1 13.400696651617166 8.282253358462139 10.850101071470538 0 0 0
513 1 15.695793134329838 6.704853805701921 12.356517537548417 0 0 0
317 1 17.599710108423405 6.668797257606395 10.325767587788008 0 0 0
436 1 17.671631701980164 8.830618441841674 12.486292737581714 0 0 0
191 1 20.588029579817153 6.2578536212183655 9.496343704394091 0 0 0
316 1 19.808048581315344 8.688090298500038 10.291144229778277 0 0 0
318 1 19.312058098880403 6.890435224455776 12.094305795729513 0 0 0
166 1 1.2785560262446836 9.492075002803297 9.787410388474292 0 0 0
321 1 0.022751998249040173 10.969228410921408 10.928890176941856 0 0 0
329 1 5.5666884888444015 10.939800788300724 10.662604663451013 0 0 0
199 1 4.097116047301373 12.316145002254984 9.605825923210295 0 0 0
296 1 4.075164248284982 9.63444422338343 12.135059809265826 0 0 0
174 1 6.5894269006401975 9.322177509078921 9.336506035301623 0 0 0
333 1 6.8152150203996005 12.216624369144245 12.396564683175834 0 0 0
304 1 9.363339435347742 9.394700539259704 12.272514327894285 0 0 0
207 1 9.528124414951193 12.309472703035407 9.370078627881984 0 0 0
182 1 11.95842135721697 9.639166676978858 9.664513198006311 0 0 0
337 1 10.70475630547862 11.010611239795827 10.894858696529496 0 0 0
341 1 12.013370892383454 12.332853254637891 12.32386320206256 0 0 0
215 1 14.931885185508822 12.047450098578878 9.435515672491022 0 0 0
312 1 14.73339480051511 9.272797705297657 12.47974837798329 0 0 0
190 1 17.4467647828581 9.302898586249773 9.170502057974263 0 0 0
345 1 16.430923087383594 10.639176680220173 11.000753705444343 0 0 0
349 1 17.518059863195347 12.28982107928932 12.364142917866253 0 0 0
223 1 20.489296108378547 12.297136105319428 9.647051844541917 0 0 0
320 1 20.484944028744177 9.751633294749336 12.42724967244364 0 0 0
198 1 1.618029703565418 14.989037844792701 9.647567465481245 0 0 0
324 1 2.8591953742670198 13.619153778594633 11.088600803606264 0 0 0
206 1 6.7024579826763695 14.9157772497923 9.545445629159667 0 0 0
332 1 8.08750508486656 13.626183144306795 10.891894705200187 0 0 0
214 1 12.259928495394483 14.972735210876047 9.596423295224117 0 0 0
336 1 9.609044320798445 15.008682005481655 12.232931306942437 0 0 0
340 1 13.644345651273836 13.627675616701978 10.907182158608272 0 0 0
344 1 14.802883282492543 14.986521056019454 12.51360041766304 0 0 0
222 1 17.66331694785279 14.905995673988441 9.67015049237469 0 0 0
348 1 19.024850423963134 13.606010656293513 11.150362757451763 0 0 0
352 1 20.463528012610883 14.831586741856874 12.3754006072507 0 0 0
357 1 1.4468139549110868 17.730928884583726 12.249267980942 0 0 0
353 1 0.045824312806036716 16.099180761912542 11.087559714550542 0 0 0
231 1 4.000173726294642 17.667891835376086 9.654977725268733 0 0 0
361 1 5.422978168666152 16.36752651612164 10.947591261209524 0 0 0
365 1 6.714159113496899 17.78018880378342 12.374305511845058 0 0 0
239 1 9.224416430662847 17.62353122624931 9.613561220595088 0 0 0
369 1 10.827414190845989 16.429338187909494 10.919224692569834 0 0 0
247 1 14.968452866631578 17.814765962858445 9.707409288762257 0 0 0
377 1 16.22153977131914 16.21565271862814 11.127062585890634 0 0 0
381 1 17.61593316570904 17.656902040105393 12.363346066250935 0 0 0
255 1 20.442643429147456 17.480660515656453 9.882613133249764 0 0 0
230 1 1.2879132581164814 20.47358822821154 9.4988027759007 0 0 0
356 1 2.760967132822883 19.174268595002097 10.794445469615747 0 0 0
257 1 21.60331835078209 0.03733135198047548 11.074440522612434 -1 0 0
360 1 4.050752475788661 20.5291274165382 12.195607769855798 0 0 0
238 1 6.78486026434267 20.08981905700506 9.74918518534121 0 0 0
364 1 8.15452568924155 18.997739676851612 11.05440508702678 0 0 0
273 1 10.874706767898376 21.680528859228634 11.124412133366311 0 -1 0
246 1 12.233503915648553 20.623656377657063 9.60904563900669 0 0 0
368 1 9.341798290720872 20.461584423348604 12.236171666538864 0 0 0
372 1 13.389020637887883 19.0868747254548 10.95260936809765 0 0 0
376 1 14.725815099211617 20.480406653271018 12.301072637481496 0 0 0
281 1 16.35424688407098 21.582310805694693 10.763424859055775 0 -1 0
254 1 17.906732748869388 20.236235975701163 9.693547955444158 0 0 0
380 1 19.143751487808146 18.93284106216253 11.12930173566059 0 0 0
384 1 20.35722679644016 20.23179876946966 12.38856730619985 0 0 0
258 1 21.798849338119407 2.4992826686789247 13.902905256616629 -1 0 0
263 1 4.269979002118186 1.369431587279198 15.099070424280828 0 0 0
266 1 5.449311599156162 2.740737912920727 13.631567911593578 0 0 0
277 1 12.093166799626706 1.4679124977702407 12.388465339979971 0 0 0
271 1 9.321307788305903 1.196799571822296 15.041492276618374 0 0 0
274 1 10.83996017292075 2.7666922477673808 13.79533999067775 0 0 0
279 1 14.740328063221956 1.1137855542398778 15.275850720387686 0 0 0
282 1 16.114807514840233 2.5440898312800186 13.673027032834002 0 0 0
287 1 20.233736479854567 1.1867491130191685 15.206972966312376 0 0 0
283 1 18.996426745928424 21.673701325688192 13.769066090125534 0 -1 0
291 1 2.4524504774079117 5.378310325417485 13.620149057665879 0 0 0
262 1 1.1632872987557585 4.035462281310443 15.050605804948242 0 0 0
270 1 6.711851846317736 4.1163532515363235 14.950301863718929 0 0 0
299 1 8.115703846331268 5.316607041438753 13.488152642415372 0 0 0
278 1 12.19357435129897 4.150336027456465 15.148630641545646 0 0 0
280 1 14.528553627536903 3.7065086963361464 12.528477231620679 0 0 0
307 1 13.372744800443964 5.618449889772029 13.698931520487449 0 0 0
288 1 20.562684197635193 3.7399121254846706 12.311366089199321 0 0 0
315 1 19.18481710404867 4.597329632878556 14.215716032379097 0 0 0
290 1 0.001842112835292547 8.414222225537694 13.681524192855493 0 0 0
295 1 3.8905521946486106 6.703091175123274 14.856336107944065 0 0 0
298 1 5.299552885929193 8.116542725086433 13.526908214657677 0 0 0
303 1 9.214151148508249 6.5036367868040355 15.147309749387407 0 0 0
306 1 10.645886892961844 8.069099724645998 13.762045955840737 0 0 0
311 1 14.650623822115728 6.4785698900322535 15.38870527748059 0 0 0
473 1 15.471904300190456 8.717676064624827 14.73618325056648 0 0 0
17 1 17.369567256872323 6.785576063249027 14.34075654852014 0 0 -1
319 1 20.379356286215643 6.741453369037367 14.99566214080985 0 0 0
325 1 1.497786824050289 12.319511407988246 12.358498785821578 0 0 0
294 1 1.6377739743232342 9.566453036121729 14.939993533488012 0 0 0
323 1 2.965311105713126 10.99850124297142 13.687320647412465 0 0 0
327 1 4.301460890210597 12.455909674620152 15.016992493456872 0 0 0
302 1 6.585882183116061 9.516615963864671 15.072907737106885 0 0 0
331 1 8.04107464724061 10.681697421790476 13.714646121632455 0 0 0
335 1 9.382337014346575 11.967592528933196 14.899358384926211 0 0 0
310 1 12.167325567540125 9.269359975991255 14.964190579519814 0 0 0
339 1 13.373172065507626 10.860989456968975 13.614558410048668 0 0 0
343 1 14.619509295735647 12.373816935019494 14.99228818807307 0 0 0
435 1 17.965064890660322 9.689958591476492 15.13712193422315 0 0 0
347 1 19.17726494392136 11.21283790211943 13.736985866811024 0 0 0
351 1 20.78740262935397 12.336837941134515 15.131711411557177 0 0 0
326 1 1.4386146017494186 15.104276384024006 15.169972484944216 0 0 0
322 1 0.25393944490219766 13.683332781517771 13.651520836441803 0 0 0
328 1 4.171356202793272 15.070917825241729 12.255427121702695 0 0 0
330 1 5.566134392587692 13.646798247980557 13.555555033775303 0 0 0
334 1 6.839901308744618 15.027549615401224 15.061215360942994 0 0 0
338 1 10.640089518062632 13.585714455757348 13.715267338798675 0 0 0
342 1 11.984927047373585 15.052368788668863 15.055916556503972 0 0 0
346 1 16.2236829058587 13.574312655234552 13.840283181449799 0 0 0
350 1 17.792330221835396 15.06370171321435 14.970690860384709 0 0 0
355 1 2.651351992980197 16.347186745021624 13.692691196363699 0 0 0
359 1 4.031174624734113 17.645094096989638 15.056241778821535 0 0 0
363 1 8.263792596529726 16.307411113161844 13.576448176579124 0 0 0
373 1 12.112073922055666 17.779155623937324 12.265667083303253 0 0 0
367 1 9.355926367425846 17.789394215321536 15.179342984836978 0 0 0
371 1 13.287018427860234 16.456820360627212 13.792312569851237 0 0 0
375 1 14.931630726942743 17.61088028528884 15.072541883286274 0 0 0
379 1 19.089809050315974 16.478221644689583 13.614245856378973 0 0 0
383 1 20.64117583346581 17.688413264240538 15.12480524138947 0 0 0
259 1 2.810652981873669 -0.015686247191906276 13.701895619620275 0 0 0
358 1 1.3467717130586514 20.352347921454953 15.000698726479028 0 0 0
362 1 5.3556747689855175 19.146386308004363 13.702211987224727 0 0 0
267 1 8.009121040945347 0.015412731105794109 13.604773088676097 0 0 0
366 1 6.742195203085982 20.433319597732723 15.018337952858031 0 0 0
370 1 10.644673264680419 19.091347844754402 13.793193385479611 0 0 0
374 1 12.188942336889504 20.379345413887613 14.994431561028977 0 0 0
275 1 13.441047725833057 -0.021358352038179252 13.768751507072778 0 0 0
378 1 16.205961895788935 19.120256265842816 13.685883389531813 0 0 0
382 1 17.767340275992613 20.25807455324861 15.149001202223822 0 0 0
354 1 0.03580133770499572 18.939461029018226 13.661280569446035 0 0 0
389 1 1.1465989585898224 1.1586464356890656 17.68904710589202 0 0 0
388 1 2.661101016936022 2.5866590152451807 16.235056556388702 0 0 0
397 1 6.851888173475592 1.3635951532767143 17.841917028928894 0 0 0
396 1 7.975810530398913 2.758681068242736 16.46923225855731 0 0 0
405 1 11.878839515528137 1.4297248008604306 17.76310095697521 0 0 0
404 1 13.424771022030368 2.585675222940083 16.521464455609692 0 0 0
413 1 17.59199266650401 1.1115706128319618 18.004367492366885 0 0 0
409 1 16.281377885966393 21.74707096633857 16.494706101767964 0 -1 0
412 1 19.060962029213176 2.6081666745489396 16.716712389786355 0 0 0
417 1 21.731131374521528 5.399128071837127 16.470989283676474 -1 0 0
392 1 3.9667951519916116 3.9448328397636434 17.796374545805378 0 0 0
425 1 5.228212298228128 5.324118291543977 16.24726307453429 0 0 0
400 1 9.35088929330673 4.06107836150586 18.069672851673676 0 0 0
433 1 10.709873710973353 5.372565366720995 16.61048653367585 0 0 0
408 1 14.98434220720178 4.044112445150074 18.017599995548704 0 0 0
286 1 17.181545923269198 3.6325674473240848 15.525146222160187 0 0 0
441 1 16.435278884705355 5.487068768014909 16.514820424558167 0 0 0
416 1 20.469102036184758 4.012192154938581 17.9729670353705 0 0 0
421 1 1.3297600507769025 6.866350570036352 17.76639176687551 0 0 0
420 1 2.557481625090073 8.138727321111688 16.38118834568199 0 0 0
428 1 8.097602700541472 8.313047873376057 16.345406946208282 0 0 0
429 1 6.582328817454175 6.767987893840279 17.618063199653378 0 0 0
21 1 12.244769720336244 6.699703972978867 17.83222192881574 0 0 -1
406 1 13.460103741462328 8.332877043761515 16.61325256061217 0 0 0
445 1 17.853704029281825 6.804758194948537 17.906323722916024 0 0 0
444 1 19.14408517470665 8.153684845090696 16.434497278719448 0 0 0
449 1 0.1632670126708149 11.095255775332015 16.415047247785036 0 0 0
453 1 1.608817210106572 12.351483128578389 17.81494580788663 0 0 0
424 1 4.090049188904778 9.508079389287092 17.875314700460347 0 0 0
457 1 5.537432802088171 10.922992803768972 16.47816881307005 0 0 0
461 1 6.750355009914098 12.334180361711885 17.71475412584673 0 0 0
432 1 9.503892266834855 9.614067694651332 17.685780827601526 0 0 0
465 1 10.989294522701107 10.817739765015547 16.290621605672655 0 0 0
469 1 12.302977201305712 12.110159099329051 17.608659681328877 0 0 0
437 1 14.872372992595801 9.533899681830821 17.80230633009137 0 0 0
440 1 16.046584185663207 10.928052392022915 16.337883585168427 0 0 0
477 1 17.824490559571334 12.229442418455308 17.752330348482012 0 0 0
448 1 20.584030429688685 9.677432226396324 17.781400224939276 0 0 0
452 1 2.9407387929441837 13.874350087368555 16.53772453401399 0 0 0
456 1 4.31316421844601 15.210919030748581 18.05865451081303 0 0 0
460 1 8.165455004932161 13.495547182911936 16.370474572644884 0 0 0
464 1 9.443004087461436 15.020320963138433 17.715403574610832 0 0 0
468 1 13.444408929784538 13.732546922447138 16.374682897698623 0 0 0
472 1 15.197634865656674 15.122114466801456 17.61319218177931 0 0 0
476 1 19.290709317895793 13.58576749818349 16.45237095335271 0 0 0
480 1 20.359704376691926 14.990235342749587 17.963276966222345 0 0 0
485 1 1.4439997865352563 17.60530697949474 17.773318405747087 0 0 0
481 1 21.742959032439725 16.27991930300699 16.513915067875562 -1 0 0
489 1 5.454348643654811 16.385548417439363 16.343326523608166 0 0 0
493 1 6.738421829184957 17.591906015634255 17.800597844964667 0 0 0
497 1 10.824297888521729 16.358771273029458 16.354795643624183 0 0 0
501 1 12.447131585778637 17.612691309394826 17.77243855833798 0 0 0
505 1 16.487754281204484 16.565175153849637 16.237438337203773 0 0 0
509 1 17.694729100642995 17.77648573863968 17.710888631580293 0 0 0
484 1 2.6284573328697762 19.043962119379554 16.464745096526066 0 0 0
393 1 5.556495291756979 0.022262342815800213 16.349678351889413 0 0 0
488 1 4.032401884634908 20.490816258686507 17.88823828080874 0 0 0