LAMMPS data file via write_data, version 10 Sep 2025, timestep = 10000000, units = metal

517 atoms
1 atom types

0 21.772397 xlo xhi
0 21.772397 ylo yhi
0 21.772397 zlo zhi

Masses

1 28.085

Atoms # atomic

7 1 1.4141496522085424 1.1767236790663071 0.9882751706740744 0 0 0
130 1 5.705828485141653 2.4905274771412045 2.385097744992446 0 0 0
135 1 7.042322955624757 1.2584991860964716 0.9696560011564032 0 0 0
292 1 10.881615752392662 2.7883272160430854 2.603682852059191 0 0 0
263 1 12.196949674679296 1.3249406864842324 1.3395767772184108 0 0 0
262 1 13.564650172941636 2.6493234225157822 21.595480147676497 0 0 -1
391 1 17.67492320876729 1.4356984309786742 1.1482373238598118 0 0 0
386 1 16.24312423722051 2.882268307729629 2.644582549371828 0 0 0
2 1 0.17037061926355435 2.651022980745558 2.4411580419950214 0 0 0
392 1 19.068896390181287 21.69467307561818 2.4121315999884634 0 -1 0
4 1 21.680098943542635 21.600956414472687 21.640057293216127 -1 -1 -1
390 1 19.07023529258891 2.8612425007842996 21.562397401394414 0 0 -1
40 1 2.728473897698627 5.39951153830068 2.6543380517002264 0 0 0
1 1 4.187862986906284 3.8423722371565807 1.120846661351096 0 0 0
35 1 8.268196910620302 5.5247123781502125 2.7123789605693744 0 0 0
168 1 9.617229550471768 4.2255116970388595 1.243658590714403 0 0 0
257 1 14.849081239217941 4.1407479782570995 1.2532097711936552 0 0 0
296 1 13.240556153159375 5.373439786985249 2.4622061317270187 0 0 0
424 1 19.207269824823143 5.486460873681516 2.626635503555409 0 0 0
385 1 20.512679764409388 3.9966479827126187 1.1781718114150008 0 0 0
39 1 1.4218426257210661 6.758889655667561 1.1486050396401264 0 0 0
162 1 5.546030014528514 8.285266640310574 2.660436193356105 0 0 0
33 1 3.9263904388591238 9.58590734298938 1.2808109616663295 0 0 0
167 1 6.8104461728780326 6.74423987069401 1.3283047136592891 0 0 0
290 1 10.843381259941877 8.336455698655968 2.5569180573829446 0 0 0
295 1 12.121189488549826 6.871499212926782 1.116532616392441 0 0 0
289 1 14.946726789142195 9.446179326688197 1.324359617932174 0 0 0
423 1 17.678030574176148 6.875728293275501 1.3244390724200577 0 0 0
418 1 16.317263659685413 7.985530418412679 2.7516756299334104 0 0 0
34 1 21.64901609908014 8.046678897701687 2.691513956817953 -1 0 0
72 1 2.8778828121713658 11.072302483467862 2.8766271167641975 0 0 0
71 1 1.3289997197653214 12.20890056852908 1.3685719198592445 0 0 0
196 1 5.409978724347452 10.868135512795813 21.74982314588732 0 0 -1
200 1 8.233201084341722 11.039940577909585 2.7521472560522953 0 0 0
199 1 6.713379749815395 12.467061146577802 1.230836885731357 0 0 0
161 1 9.390978982215051 9.690761472600002 1.2020631814806275 0 0 0
327 1 12.329927984380012 12.19967009231087 1.64361829060543 0 0 0
324 1 11.04492976324943 10.77770512171252 0.031070833820471933 0 0 0
328 1 13.620228326582023 10.645245782335861 2.776533883298148 0 0 0
455 1 17.99524971831861 11.917880750921785 1.2665411752604552 0 0 0
452 1 16.19325358602213 11.002758320777373 21.6826949676298 0 0 -1
417 1 20.26348486731007 9.38923699710313 1.3918844818231348 0 0 0
456 1 19.12374211254473 10.831482325240474 2.9012848051347313 0 0 0
66 1 21.74294130929209 13.592534903737732 2.6579426527147048 -1 0 0
65 1 4.125030018615763 15.088648894308289 1.516030156318316 0 0 0
194 1 5.630042640642771 13.677852349102798 2.850185942827557 0 0 0
193 1 9.544532490333026 15.013757910284511 1.4124466679265473 0 0 0
322 1 10.92601862947688 13.582672594050893 2.637174955558704 0 0 0
321 1 15.105258162779847 14.805301687416362 1.4712423510657944 0 0 0
326 1 13.648408437696121 13.425718326895367 0.18341112191647113 0 0 0
450 1 16.616473016330495 13.42798792516855 2.690524632759401 0 0 0
449 1 20.369244527751558 14.925399216040203 1.3149964648756394 0 0 0
454 1 19.06982145725748 13.530456235805588 0.11625909498122411 0 0 0
103 1 1.36519551706717 17.83488024736478 1.3320998244853317 0 0 0
104 1 2.5454316567949333 16.606419638709834 2.800435730228727 0 0 0
100 1 21.663725484008545 16.327835372313064 0.07633869957675543 -1 0 0
231 1 6.827978377590804 17.8695503685874 1.3022921322389431 0 0 0
232 1 8.187523268367512 16.487372069203555 2.584919661336374 0 0 0
359 1 12.296149010856912 17.711072531657265 1.3960699009773025 0 0 0
360 1 13.490253579088224 16.149278829289354 2.8131248530535964 0 0 0
487 1 17.717618671997137 17.532685089095423 1.265108460501731 0 0 0
484 1 16.399289461236222 16.068358483919162 21.762034242006894 0 0 -1
488 1 19.135397230636972 16.301183099841207 2.8350840180833683 0 0 0
513 1 2.710983468817452 0.02154597350801879 2.6189738535407745 0 0 0
226 1 5.616648669017596 19.315861050633117 2.778518739037006 0 0 0
97 1 4.049535411603527 20.274159237751178 1.3015945832809852 0 0 0
136 1 8.191034372565694 0.008337843862747718 2.4457924535015287 0 0 0
230 1 8.258860944364244 19.105383710360876 21.68106516590224 0 0 -1
225 1 9.581347182502709 20.42860315934565 1.2572947846810802 0 0 0
354 1 10.899074698217742 19.05199675003517 2.7194832435090714 0 0 0
260 1 10.879505080692383 0.09649800138432951 21.557810640801264 0 0 -1
264 1 13.662402252727867 0.06245054992721668 2.648886041360751 0 0 0
353 1 15.026247195381838 20.344710240249626 1.369331031101947 0 0 0
358 1 13.648945716808543 19.05548431424524 21.593205049529004 0 0 -1
482 1 16.19889594803544 18.887221449915927 2.5820722861317624 0 0 0
98 1 21.60922235466866 19.057732091125406 2.605977838080936 -1 0 0
481 1 20.254956980016654 20.20792136731391 1.1010238039002171 0 0 0
14 1 2.681038866974692 2.5795064513031516 5.316198478263055 0 0 0
8 1 4.124927104602488 1.3630594739999995 3.7799543761659233 0 0 0
140 1 5.387360088924153 0.05306563383404139 5.269589566807096 0 0 0
131 1 8.515177083989261 2.4070624749926584 5.650001507649245 0 0 0
258 1 9.678494108941337 1.2111111128774978 3.715224566809849 0 0 0
259 1 15.100225072602795 1.2930644414883778 4.1036656533940095 0 0 0
270 1 13.778042198029441 2.733241444287159 5.305306307881648 0 0 0
396 1 16.43728522156375 21.46398837351335 5.361495443103852 0 -1 0
398 1 18.936455208188363 2.8432675411714032 5.324003821248027 0 0 0
387 1 20.415223398677504 1.4481219047862044 3.707068296993867 0 0 0
12 1 21.664881443545614 0.13207334796351944 5.295766763527619 -1 0 0
5 1 1.2087587612003026 4.022889156185771 3.9766287761498402 0 0 0
44 1 21.62863415203873 5.298775851372796 5.516215334655913 -1 0 0
142 1 5.5907983114060755 3.720802786319934 5.471918677225777 0 0 0
133 1 5.339159788345822 5.409367797156392 3.385889308436737 0 0 0
3 1 3.146953165101335 5.583194417178397 5.609023666812201 0 0 0
129 1 7.650659769397214 3.2711246002023358 3.495184510194075 0 0 0
514 1 7.6977170519191205 5.388831461298976 5.5523108443358336 0 0 0
300 1 10.954248546372389 5.493597748314984 5.222641239850969 0 0 0
261 1 12.184401520072223 3.946530035220131 4.043609657309444 0 0 0
389 1 17.584941715294267 4.275354985765421 4.047984360622728 0 0 0
428 1 16.233619815795716 5.5579980135895415 5.400295531213904 0 0 0
46 1 2.2883024997546815 8.669539558202112 5.839397077194445 0 0 0
515 1 3.308794244581306 7.556129596446631 3.6047690337642244 0 0 0
48 1 5.274277983611452 7.163330225826666 5.419971189544773 0 0 0
174 1 8.470350071179649 8.467774599960103 5.411340602917656 0 0 0
163 1 9.666209572606197 7.026874340092846 3.9821646533341766 0 0 0
291 1 14.753696219837677 6.6657257556599765 4.084512296170536 0 0 0
302 1 13.510577076622994 8.083446616586887 5.39721677002472 0 0 0
430 1 19.026207664079013 8.135088145767 5.501144413842732 0 0 0
419 1 20.33580514464829 6.700771640897649 4.116364898638842 0 0 0
37 1 1.32696498852023 9.618629677283362 3.9257781029336254 0 0 0
76 1 21.6307333043717 10.955002315745864 5.439754118050994 -1 0 0
204 1 5.542560830121966 10.877291527563576 5.3051235765486116 0 0 0
67 1 4.081778775106842 12.450554747133125 4.332748573710992 0 0 0
165 1 6.905640200840167 9.627111559882106 3.9284051159854547 0 0 0
332 1 10.91329537981952 11.095180574001722 5.436469616313284 0 0 0
293 1 12.132826480625026 9.444677279448852 4.034838954760434 0 0 0
195 1 9.548968353433015 12.455573545505771 4.061990689006049 0 0 0
323 1 14.797675157466006 12.156001440922497 3.9015014747842236 0 0 0
421 1 17.56302723910407 9.416586690108709 4.098720546587784 0 0 0
460 1 16.275854193804584 11.008335012803212 5.5179666095405615 0 0 0
451 1 20.30450557988005 12.43393194401041 4.157103146865141 0 0 0
69 1 1.492715000018692 14.981084954178389 4.213857163377544 0 0 0
78 1 2.84133123362905 13.760007906870003 5.699134333163087 0 0 0
197 1 7.058559875910846 15.175979250775852 4.126182940970683 0 0 0
206 1 8.053845000521267 13.820308627927773 5.519690499415658 0 0 0
325 1 12.012688248857575 14.95181047285813 4.075251132628682 0 0 0
334 1 13.394566396045839 13.648787763349574 5.421387568629138 0 0 0
453 1 17.77964384091417 14.954971437547075 4.226490602510767 0 0 0
462 1 18.90210356050819 13.65385992003079 5.575955582135439 0 0 0
99 1 4.068537924806609 17.85686831016374 4.028139729291528 0 0 0
236 1 5.523495439167655 16.614939382660506 5.42585813311473 0 0 0
227 1 9.489933751641928 17.93793014459634 3.9895837607500813 0 0 0
364 1 10.727404522115197 16.314558582354096 5.388176079682375 0 0 0
355 1 14.964864670184323 17.47124454384713 4.147185098015539 0 0 0
492 1 16.169280864895903 16.121992850460888 5.457467898997794 0 0 0
108 1 21.54404488841882 16.312449823133704 5.52119818432945 -1 0 0
483 1 20.387304807714724 17.699272290220705 4.150711460044663 0 0 0
110 1 2.6141832982569726 19.23623114251543 5.385803893578429 0 0 0
101 1 1.1547007132258935 20.482101057743805 3.8781330662080324 0 0 0
238 1 8.294067673289712 19.26035327290927 5.395443224932123 0 0 0
229 1 6.999058685597164 20.71741072163542 4.026101290149549 0 0 0
268 1 10.972391402383414 0.0917717072274229 5.34730202834817 0 0 0
357 1 12.304618950785496 20.407105644022923 4.108555568001449 0 0 0
366 1 13.689496262704685 18.890222450327723 5.369853099613639 0 0 0
485 1 17.67939573135444 20.29081030546178 3.7748850948289947 0 0 0
494 1 19.04789179501752 19.021312379161195 5.39218773770911 0 0 0
15 1 1.2942132480976023 1.4077650481078368 6.775678140161737 0 0 0
16 1 2.6362112427647033 21.697896980777358 7.98335062552153 0 -1 0
138 1 5.351914084492983 2.68819225214974 8.287052370721124 0 0 0
143 1 6.717366579449821 1.399991299457628 6.782377121958405 0 0 0
266 1 10.901436000046122 2.5703387943333813 8.266288395870943 0 0 0
271 1 12.268045949010054 1.436365148077006 6.824616946666096 0 0 0
399 1 17.670315195424067 1.364840470518056 6.643054875597033 0 0 0
394 1 16.205934386446874 2.6330985570028203 8.007159244352872 0 0 0
10 1 0.020065159206382077 2.66536867500807 8.080330751316136 0 0 0
400 1 18.909919930707197 0.11443964033647802 8.335651044861795 0 0 0
13 1 2.1683533038001466 5.855345767533315 8.581443845297485 0 0 0
9 1 3.254801139646743 3.6059825702716597 7.5005262134130914 0 0 0
172 1 5.22074722032581 5.537558477645462 7.457483212447167 0 0 0
176 1 8.204092418054323 5.463992959319321 8.352254091505554 0 0 0
137 1 9.69260166415215 4.02119909073934 6.874844840841751 0 0 0
265 1 14.983955575729619 4.127226693614908 6.7829857265457925 0 0 0
304 1 13.60781330344286 5.396858527732908 8.12798412292408 0 0 0
432 1 18.828455145735653 5.393338203417923 8.151504538867878 0 0 0
393 1 20.265653243872066 4.059524619702256 6.7969533447091095 0 0 0
47 1 1.3385209207412447 6.804661243050551 6.646751239482557 0 0 0
170 1 5.590456639521905 8.520491560631536 8.418217279942494 0 0 0
175 1 7.417105983184432 7.500888571982693 7.23618412836754 0 0 0
298 1 10.936997267644976 8.16929163474106 8.276579845226614 0 0 0
303 1 12.192717014441643 6.789072938668724 6.867451662777261 0 0 0
426 1 16.36880614384195 8.241415186036944 8.194590691924414 0 0 0
431 1 17.668944369327775 6.805948881354953 6.849438938917575 0 0 0
42 1 21.708717448702117 8.272689257681426 8.160907752698263 -1 0 0
80 1 2.6856292687885976 10.767711606408975 8.203852321801804 0 0 0
79 1 1.3890252380992842 12.20344418464102 6.794885900464749 0 0 0
41 1 4.298185468186654 9.386024289670692 6.747284486158567 0 0 0
208 1 8.216736979427122 10.979139859756346 8.323044014351082 0 0 0
207 1 6.841393782416453 12.228377833775426 6.8263872802090715 0 0 0
169 1 9.6253940586433 9.756160576555414 6.98124626423024 0 0 0
335 1 12.160490708824865 12.402006367812595 6.796816102844358 0 0 0
297 1 14.845733323111897 9.629971667870544 6.754855368249507 0 0 0
336 1 13.471603325734808 10.857961442643523 8.110463397263214 0 0 0
463 1 17.605020924825855 12.290118212148105 6.9407149356976605 0 0 0
425 1 20.373194137689183 9.520763239197368 6.919422833595421 0 0 0
464 1 18.95512290342252 11.004601302425442 8.312025965595822 0 0 0
74 1 21.767881521949796 13.571505095564637 8.137386658356327 -1 0 0
73 1 4.2181343488266085 15.155600267342221 6.822393643812856 0 0 0
202 1 5.4310889989951825 13.686060927058563 8.06470994416535 0 0 0
201 1 9.464468518189008 15.016514585335166 7.021003670144922 0 0 0
330 1 10.929096392152996 13.837151604950241 8.296469140892608 0 0 0
329 1 14.883133441746265 14.829045230303025 6.824220239570824 0 0 0
458 1 16.26183948245385 13.645774570525864 8.322576055115462 0 0 0
457 1 20.277511915232342 15.081807578786641 6.946932372677182 0 0 0
111 1 1.3919634631592264 17.743364348560693 6.781071125091057 0 0 0
112 1 2.748691721593962 16.33393955672317 8.241245579318996 0 0 0
239 1 6.883954926441088 17.832041240282166 6.770229105562049 0 0 0
240 1 8.149853318470743 16.36237932923635 8.220323948332908 0 0 0
367 1 12.276415885781395 17.571050176777142 6.618713141806284 0 0 0
368 1 13.525331312960708 16.2708117717477 8.105466323243782 0 0 0
495 1 17.69931675795282 17.50105535111545 6.7228413483076475 0 0 0
496 1 19.182738367781674 16.370130186679056 8.37392932273292 0 0 0
234 1 5.3803163176163356 19.043313362437924 8.132691238686599 0 0 0
105 1 4.047225364449812 20.537410737657076 6.761816145871874 0 0 0
144 1 8.19632450920777 0.03818973137145896 8.091016188370913 0 0 0
233 1 9.693829969957063 20.604930293532693 6.726076843983601 0 0 0
362 1 10.920897418825689 19.20624186419874 8.210804669823254 0 0 0
272 1 13.532265675953067 21.771434767095233 8.137826959656646 0 -1 0
361 1 14.92320593085031 20.40265677960141 6.776702370345223 0 0 0
490 1 16.326667286152524 18.984691120266966 8.001340071085888 0 0 0
106 1 0.042116506882038746 19.25709555943687 7.8566118457000185 0 0 0
489 1 20.166375049558816 20.621678085072254 6.665804997461001 0 0 0
22 1 2.62639064927585 2.581753201494614 10.753649255749421 0 0 0
11 1 4.037567460851888 1.1576935821843892 9.641667779478624 0 0 0
150 1 8.344966797807167 2.6774024358891726 11.024072822226577 0 0 0
139 1 9.528193914491295 1.1540695487194856 9.542637484412738 0 0 0
279 1 12.272882242718108 1.4376568214687266 12.187661741837731 0 0 0
267 1 14.924533020824056 1.3342038140947161 9.436221493371283 0 0 0
278 1 13.785592495914019 2.7320263911432825 10.91227893712374 0 0 0
407 1 17.814807058317033 1.4103015455845158 12.362790890529311 0 0 0
395 1 20.478807494749248 1.3243030250410794 9.536283274500796 0 0 0
406 1 19.06020012646029 2.7631887755888913 10.835090061045962 0 0 0
516 1 1.2303195990508018 3.8558775261122054 9.408347362330165 0 0 0
180 1 5.494204019969782 5.2534499982655465 11.059101221306411 0 0 0
17 1 3.965706953787413 3.853813368543088 12.196537735347643 0 0 0
141 1 6.787829136947123 3.941427285692646 9.748244333172075 0 0 0
145 1 9.674165381748443 4.019147662369121 12.255875711062147 0 0 0
308 1 10.93281437342645 5.468217081615812 10.985642625296133 0 0 0
269 1 12.348189378226213 4.035720525795358 9.544095444198039 0 0 0
273 1 15.069932255467052 4.117360133704981 12.263353051394624 0 0 0
397 1 17.599397647003332 4.089374211897454 9.472887918093798 0 0 0
436 1 16.281546399543426 5.598862428187944 10.91226531496429 0 0 0
52 1 21.745066700422957 5.406966574177294 10.65572596646488 -1 0 0
401 1 20.40443660916441 4.193631569369357 12.324504765292401 0 0 0
54 1 2.850250791502744 7.975883921572509 10.738015962311637 0 0 0
55 1 1.590123131798981 6.548025020687836 12.134680784998471 0 0 0
43 1 4.408453149491634 6.775538512115523 9.59273106101998 0 0 0
182 1 8.15282302845594 8.324044469064384 11.118557453022355 0 0 0
183 1 6.823692179684889 6.7843003758155405 12.370207486671761 0 0 0
171 1 9.559743885404211 6.822629045866758 9.661948886849581 0 0 0
311 1 12.298386479615045 7.023740702886598 12.317935964929902 0 0 0
299 1 14.835171906132853 6.747465588668653 9.393143131881104 0 0 0
310 1 13.65505272254462 8.280528416660966 10.838440680764986 0 0 0
439 1 17.67887873368072 6.790086584464637 12.111011178476561 0 0 0
427 1 20.377218244854696 6.787109577178373 9.261717190266777 0 0 0
438 1 18.97356941014936 8.091034600090705 10.814642019805117 0 0 0
45 1 1.3756809019200311 9.33210439334861 9.691193224486382 0 0 0
87 1 1.2995879739013938 12.11850277789996 12.386207273680588 0 0 0
212 1 5.2206524019106215 11.026800537407134 10.854714689662343 0 0 0
49 1 3.955991946889424 9.563718608811083 12.287911774646444 0 0 0
75 1 4.028240793508582 12.288535311422311 9.452639217180407 0 0 0
173 1 6.791801553308452 9.774736243039172 9.786727118557314 0 0 0
301 1 12.119081081750705 9.628225264278718 9.760765833903273 0 0 0
340 1 10.652416160186439 11.097989949423164 11.025884103580738 0 0 0
203 1 9.464961228227569 12.413743125933815 9.656630089435351 0 0 0
177 1 9.291829569868696 9.831414697892866 12.324168622417261 0 0 0
343 1 12.13517569995919 12.264021011744992 12.262262359687675 0 0 0
331 1 14.969749372590133 12.270675937712655 9.510681085979638 0 0 0
429 1 17.639773746900772 9.74297268129466 9.65475466436537 0 0 0
468 1 16.273834412029068 10.950710080295774 11.072512431828859 0 0 0
471 1 17.551262949172497 12.257827979393877 12.50728938049022 0 0 0
84 1 0.018837261459058396 10.656811884105789 10.956229402758227 0 0 0
459 1 20.545660849098194 12.173246910844378 9.656156864406649 0 0 0
433 1 20.332226576952568 9.375195069386484 12.353176708482286 0 0 0
77 1 1.3955420989956357 14.959051183119112 9.591633130304324 0 0 0
86 1 2.6263262330004213 13.500704805029512 10.903975677608663 0 0 0
81 1 3.994930797268651 14.964462396009772 12.199958230918062 0 0 0
205 1 6.6193517504205595 15.138474637836932 9.481972263416747 0 0 0
214 1 7.941001720947202 13.748510052494378 10.9415989340826 0 0 0
215 1 6.5801725930529775 12.304461137797947 12.290511242949135 0 0 0
209 1 9.473181289756797 14.828628553142266 12.18101557981143 0 0 0
333 1 12.182095281531335 15.101810713005491 9.64754386767664 0 0 0
342 1 13.592583721192707 13.60163820466363 10.883335242247494 0 0 0
337 1 14.910627399816812 14.990943944631038 12.136287539989187 0 0 0
461 1 17.695495092301773 14.987724483943873 9.597097049408564 0 0 0
470 1 18.962364999541723 13.52603901822031 10.902994277518806 0 0 0
465 1 20.415387229852264 14.868517914121716 12.107973797303472 0 0 0
119 1 1.286827385493252 17.71082018860746 12.41782456974309 0 0 0
116 1 0.03066831491427635 16.511362348875767 10.8574125552511 0 0 0
107 1 4.103682173290689 17.7682970639374 9.618445304156912 0 0 0
244 1 5.406476702699536 16.390914258641775 10.94462571736203 0 0 0
247 1 6.952401170258855 17.487266725851125 12.281198365940224 0 0 0
235 1 9.517048837200761 17.763359846070973 9.410889668015253 0 0 0
372 1 10.76989881434539 16.391876992238288 10.800007789223601 0 0 0
375 1 12.202836768632041 17.448566244452763 12.217667223999179 0 0 0
363 1 15.044894095082398 17.633057272297147 9.441643584355303 0 0 0
500 1 16.39226184563658 16.332834500256112 10.895444977870227 0 0 0
503 1 17.757926530662086 17.82544784160377 12.17030440587844 0 0 0
491 1 20.500676750281833 17.76776927294925 9.514187039209528 0 0 0
109 1 1.386148960577476 20.354942753869604 9.384187409037777 0 0 0
118 1 2.5648140342907473 19.067192588330958 10.78881695922845 0 0 0
148 1 5.491201018136196 21.747907689362307 11.041810756203033 0 -1 0
113 1 3.964506494230536 20.280388897035547 12.200521806740129 0 0 0
246 1 8.244952141767426 19.007845563811994 10.850020932342963 0 0 0
237 1 6.703951225475497 20.2329056749706 9.603653121352762 0 0 0
241 1 9.61998116919401 20.493400555845447 12.154619116396487 0 0 0
276 1 10.9012142377254 21.747598920386746 10.882281659465221 0 -1 0
365 1 12.348086965064143 20.39836319101993 9.495229224400886 0 0 0
374 1 13.610029959300448 18.890838097122977 10.822717494080946 0 0 0
369 1 14.990519795006058 20.503698983093788 12.016352339122554 0 0 0
404 1 16.402829006464074 0.1935253613258041 10.755256822305574 0 0 0
493 1 17.62770409585999 20.353919936417633 9.4065113785742 0 0 0
20 1 0.19048966377357246 21.697264976251645 10.857554217616517 0 -1 0
502 1 19.159462943441223 19.170358234616756 10.825512433041997 0 0 0
497 1 20.458977125031158 20.48351388143838 12.145647786550269 0 0 0
23 1 1.2683673040577197 1.431092277372393 12.30793056259669 0 0 0
19 1 4.086805841818424 1.2235637842363485 15.079966415826972 0 0 0
146 1 5.448942739584478 2.7433674201149616 13.73466232667925 0 0 0
151 1 6.775169512939526 1.3964294355590037 12.237644688907011 0 0 0
147 1 9.576035905393194 1.2347808110422072 14.827985360018547 0 0 0
274 1 10.932514483263631 2.635518590464543 13.57305153026212 0 0 0
275 1 14.884119446251539 1.2799647083462378 14.765828646001236 0 0 0
280 1 13.63734520082467 0.015054825051841192 13.283925153551461 0 0 0
402 1 16.370889693166326 2.9489371700835623 13.794719936221185 0 0 0
18 1 21.617363676184233 2.5866533079744065 13.588095586806636 -1 0 0
403 1 20.599563349634685 1.2583978981348447 15.06367147301953 0 0 0
408 1 19.22720844932772 21.659277554546712 13.699624470005512 0 -1 0
21 1 1.11366502945367 3.9096518759103764 15.033515819736326 0 0 0
56 1 2.663750292553455 5.158320671408308 13.585182541058552 0 0 0
149 1 6.721969695403836 3.9443985959591497 14.95518403177448 0 0 0
184 1 8.237411999285507 5.52334890004576 13.66053264394113 0 0 0
277 1 12.063391199632099 4.051975741042845 15.02445438015871 0 0 0
312 1 13.521278996633589 5.493143866183865 13.582038987907955 0 0 0
405 1 17.72018687218591 4.2787772193255345 15.022796731418843 0 0 0
440 1 18.898609600108372 5.655318585497941 13.55530896212117 0 0 0
50 1 0.15279673768771967 7.910247917751856 13.393196673426788 0 0 0
51 1 4.191752258855509 6.638124124037464 14.813240906671712 0 0 0
178 1 5.3356315404884915 8.214970966539575 13.619844812033888 0 0 0
179 1 9.52974541419088 6.99776394384917 14.775730908356286 0 0 0
306 1 10.878055283308328 8.315949225820965 13.469106406478135 0 0 0
307 1 15.120599299885903 6.642338854613884 14.926817030723022 0 0 0
434 1 16.475569363627102 8.342065617758475 13.645773321637906 0 0 0
435 1 20.565709231932747 6.716405553447853 14.967961252128537 0 0 0
53 1 1.3787719701048033 9.243937414490917 14.964475805265533 0 0 0
88 1 2.7146119368138697 10.87202583054401 13.782123966211246 0 0 0
83 1 3.949657359776152 12.39470314346588 14.980578739805368 0 0 0
181 1 6.56245854678237 9.65020659252944 14.995855031867839 0 0 0
216 1 7.927437504380826 11.0925407332122 13.741007085565617 0 0 0
309 1 12.230587923806686 9.691298836838442 14.99996168692877 0 0 0
211 1 9.2986860810897 12.193370609032083 15.02715000985976 0 0 0
305 1 14.922877321194855 9.538997307340813 12.421527200427427 0 0 0
344 1 13.631510660987752 10.975009451656236 13.64788786227833 0 0 0
339 1 14.937479652121786 12.313625205370329 14.965625658324976 0 0 0
437 1 17.863710035282317 9.577701134798179 15.218662131965967 0 0 0
472 1 19.00801814210393 10.872769321167539 13.629354441569456 0 0 0
467 1 20.34798966211111 12.15170127519544 15.027760372620602 0 0 0
85 1 1.338875996683887 14.84802071217753 15.02030112541092 0 0 0
82 1 21.73908101860116 13.488865140160954 13.676144466108036 -1 0 0
210 1 5.4275874718380015 13.661323958368596 13.589000480695061 0 0 0
213 1 6.797625848017903 15.117656893022202 15.05799856708208 0 0 0
338 1 10.74991517164718 13.560351497166137 13.669854893413534 0 0 0
341 1 12.07070038415306 15.025706481789355 14.971533098709155 0 0 0
466 1 16.24983082351904 13.6479343562222 13.678759921168982 0 0 0
469 1 17.841164641724955 15.000679917678987 14.99457206682501 0 0 0
120 1 2.7235992615224176 16.07961837896464 13.732973850325735 0 0 0
115 1 4.293654278781176 17.395667065131857 14.891906103111383 0 0 0
248 1 8.268612439798652 16.135873889481108 13.658553653303642 0 0 0
243 1 9.550276083888914 17.81371744338909 14.808857355507728 0 0 0
371 1 15.032100344364991 17.659684399446792 14.832307073216553 0 0 0
376 1 13.620696287784737 16.05823607591124 13.63639376866129 0 0 0
504 1 19.00226516976677 16.29859117643275 13.47743476857084 0 0 0
499 1 20.428185560255482 17.533971171066568 14.949503158271698 0 0 0
24 1 2.673192884601656 21.57526881798228 13.834196753055004 0 -1 0
117 1 1.269694350808771 20.379798638511982 15.175483101895248 0 0 0
242 1 5.610415157553695 18.872106956761993 13.433114228677935 0 0 0
152 1 8.13174370239028 21.626989425388377 13.513759393689174 0 -1 0
245 1 6.9216137882561535 20.27570492670246 14.880591208109308 0 0 0
370 1 11.040093643631138 19.102946085565943 13.339591263221 0 0 0
373 1 12.283055254715382 20.323702392424565 14.775893093242669 0 0 0
498 1 16.345585214736005 19.053417649277097 13.429809033820995 0 0 0
501 1 17.67124572425713 20.28102986498088 14.946662154543919 0 0 0
114 1 21.749184621050485 19.06158846025568 13.740375390666982 -1 0 0
31 1 1.5446367770540705 1.2258615248510691 17.881853266452346 0 0 0
30 1 2.6656074430175076 2.639242771619919 16.369742495455377 0 0 0
156 1 5.6885179303362445 21.47516698634129 16.239334016307307 0 -1 0
159 1 6.92169462801378 1.3139342133635379 17.5040807015149 0 0 0
158 1 8.236929594962735 2.7114142029414454 16.179290013195956 0 0 0
287 1 12.336635492921083 1.5264648968568288 17.54486912720047 0 0 0
286 1 13.718976537779119 2.916331688427674 16.27856920825936 0 0 0
415 1 17.537939973681546 1.2540676650235796 17.646946214830304 0 0 0
414 1 18.97247297777774 2.721443295657156 16.304813427459216 0 0 0
28 1 0.0995215220340313 21.760899177957945 16.548473399703298 0 -1 0
60 1 21.633526428616445 5.133740810067566 16.50098554958988 -1 0 0
25 1 4.127998424319966 3.972422430904723 17.724741234893433 0 0 0
188 1 5.456801845978965 5.364422541980338 16.33051364167475 0 0 0
153 1 9.62829045849504 4.087554632268787 17.46087330105102 0 0 0
316 1 10.811707144043934 5.651868170464661 16.253079228446737 0 0 0
281 1 14.865888536015774 4.308297600229079 17.580593246995466 0 0 0
444 1 16.358900558229887 5.503529317020748 16.403296578080454 0 0 0
409 1 20.261490632155787 3.811715326349454 17.812667304176774 0 0 0
62 1 2.677476055056906 8.006521597987579 16.34152566909291 0 0 0
63 1 1.2886591157929073 6.683256091396855 17.7960935159668 0 0 0
190 1 8.165790715181478 8.239212739973087 16.235472906733996 0 0 0
191 1 6.783441285079773 6.812571642828667 17.62113599768635 0 0 0
319 1 12.288733931595662 6.904935390025216 17.6319874799388 0 0 0
318 1 13.761948400576653 8.092329503903379 16.229764191496308 0 0 0
447 1 17.84237733601331 6.919125070844175 17.680064110524107 0 0 0
446 1 19.393016539115976 8.178955734947769 16.398295985689316 0 0 0
95 1 1.3815862449517844 12.06495012953866 17.686630328410157 0 0 0
92 1 0.0801635670985199 10.636505180704715 16.249781928609647 0 0 0
57 1 4.038612150431525 9.389926394169489 17.6862329240045 0 0 0
220 1 5.1972433106018014 11.087460783872162 16.378471090770155 0 0 0
223 1 6.756709542364735 12.491970190910056 17.76309356569444 0 0 0
185 1 9.540974606044564 9.564600456940369 17.649614550378082 0 0 0
348 1 10.916979575446653 10.816882343835365 16.175806486329552 0 0 0
351 1 12.326448794843195 12.296229644354796 17.56941949535739 0 0 0
313 1 14.89265647293296 9.643686737568158 17.62185940998308 0 0 0
476 1 16.385342793967364 11.05920579575525 16.404330292434135 0 0 0
479 1 17.78492614257087 12.269525929084631 17.826804283891835 0 0 0
441 1 20.605602325234745 9.557371773783194 17.901562929923905 0 0 0
94 1 2.680500465824392 13.64641112243891 16.489895142049974 0 0 0
89 1 4.01919166673153 14.95892203723723 17.87206122903406 0 0 0
222 1 8.108980161517572 13.684348373769442 16.382450212601746 0 0 0
217 1 9.689781010587081 14.93009437453087 17.602283519018567 0 0 0
345 1 14.940933737296461 15.017818945507042 17.614273242523335 0 0 0
350 1 13.666038156701928 13.69858907572482 16.212383831733312 0 0 0
478 1 19.063508557581002 13.57734927419745 16.382839848741003 0 0 0
473 1 20.35840318650772 14.819915170815571 17.76353457349101 0 0 0
127 1 1.4497391442678342 17.516947327547772 17.726285388690457 0 0 0
252 1 5.540294418493806 16.30286623757251 16.615118410178056 0 0 0
255 1 7.124759317689378 17.4547897511134 17.758014020415597 0 0 0
380 1 10.95089577768782 16.450898962790124 16.335784901478124 0 0 0
383 1 12.200295792973447 17.91659607327812 17.81691363362186 0 0 0
508 1 16.43562537523885 16.296121179501856 16.132371725462267 0 0 0
511 1 17.61111856972516 17.63003913902066 17.81726044323716 0 0 0
124 1 21.666256830987738 16.237978726091892 16.402376202253667 -1 0 0
126 1 2.7683606429762286 18.76729003242523 16.23187058019094 0 0 0
121 1 4.281954813134475 20.123380807995375 17.62176744219665 0 0 0
254 1 8.189847153672172 18.86547640420628 16.320844828626225 0 0 0
284 1 11.063997267081207 21.741216332679937 16.186035064030023 0 -1 0
249 1 9.593445248870589 20.376604019915984 17.47652659278436 0 0 0
382 1 13.623993647486856 18.957996726193798 16.17800116760125 0 0 0
377 1 15.043382645059362 20.25374058753151 17.553458046932857 0 0 0
412 1 16.348207408865235 21.65782363406598 16.082306424168063 0 -1 0
510 1 19.049364916957188 18.754375601751075 16.404237851629176 0 0 0
505 1 20.18801213654056 20.311253801507426 17.75261641975307 0 0 0
6 1 2.7328502049460046 2.5984662428675063 21.64571428554341 0 0 -1