LAMMPS (10 Sep 2025)
OMP_NUM_THREADS environment is not set. Defaulting to 1 thread.
  using 1 OpenMP thread(s) per MPI task
Loaded 1 plugins from C:\Users\lmike\AppData\Local\LAMMPS 64-bit 10Sep2025 with GUI\plugins
# LAMMPS input generated from LammpsInputFile with pymatgen v2025.10.7

# STYLES
units metal
atom_style atomic

# SET UP CALCULATION
read_data starting_config.dat
Reading data file ...
  orthogonal box = (0 0 0) to (21.772397 21.772397 21.772397)
  1 by 1 by 1 MPI processor grid
  reading atoms ...
  517 atoms
  read_data CPU = 0.002 seconds
pair_style sw
pair_coeff * * Si.sw Si
Reading sw potential file Si.sw with DATE: 2007-06-11
velocity all create 900 2136472

# CALCULATION PARAMETERS
fix f1 all nvt temp 900.0 900.0 $(100.0*dt)
fix f1 all nvt temp 900.0 900.0 0.10000000000000000555
thermo 100000
thermo_style custom step temp press spcpu cpuremain

# RUN CALC AND WRITE OUTPUTS
dump d1 all custom 100 state_dump id type x y z vx vy vz
run 10000000
Neighbor list info ...
  update: every = 1 steps, delay = 0 steps, check = yes
  max neighbors/atom: 2000, page size: 100000
  master list distance cutoff = 5.77118
  ghost atom cutoff = 5.77118
  binsize = 2.88559, bins = 8 8 8
  1 neighbor lists, perpetual/occasional/extra = 1 0 0
  (1) pair sw, perpetual
      attributes: full, newton on
      pair build: full/bin/atomonly
      stencil: full/bin/3d
      bin: standard
Per MPI rank memory allocation (min/avg/max) = 3.12 | 3.12 | 3.12 Mbytes
   Step          Temp          Press          S/CPU         CPULeft    
         0   900            42402.643      0              0            
    100000   849.72358      11638.221      590.53815      16764.37     
    200000   875.8037       12249.06       419.94589      19965.686    
    300000   918.03177      13257.761      413.76502      20989.056    
    400000   875.62211      13183.318      433.11054      21120.816    
    500000   844.83698      12918.505      495.163        20557.766    
    600000   940.48821      13844.362      502.43806      20069.269    
    700000   869.36782      11907.447      506.71379      19641.165    
    800000   935.93867      13224.878      521.40766      19206.791    
    900000   916.24659      12433.938      509.70188      18870.861    
   1000000   856.83549      13615.194      519.05862      18531.048    
   1100000   862.93609      12998.931      510.59237      18243.837    
   1200000   894.65593      10601.37       504.69475      17988.636    
   1300000   941.52042      14027.813      508.41491      17732.511    
   1400000   849.47871      11453.679      510.38753      17480.208    
   1500000   882.54457      11240.661      518.73994      17217.543    
   1600000   998.94782      11821.589      510.58315      16979.784    
   1700000   891.80292      10533.165      507.96955      16751.874    
   1800000   888.18614      10751.685      517.56561      16510.786    
   1900000   869.9419       11100.67       511.399        16284.67     
   2000000   918.93672      11328.932      525.329        16040.871    
   2100000   910.46074      9925.4961      493.48902      15848.365    
   2200000   869.66249      10669.64       518.80534      15619.88     
   2300000   872.17573      9927.7867      492.89354      15428.425    
   2400000   969.53791      12679.466      502.75247      15223.42     
   2500000   865.33844      12696.393      505.51961      15015.636    
   2600000   930.4497       11425.361      501.90286      14812.676    
   2700000   918.02479      11440.504      503.83336      14607.927    
   2800000   875.3948       10918.64       520.26535      14387.507    
   2900000   886.93547      11004.129      516.97709      14172.026    
   3000000   889.23281      13135.485      505.49845      13968.263    
   3100000   890.5107       11425.838      506.96442      13763.61     
   3200000   941.33706      11622.276      502.25355      13563.351    
   3300000   980.39731      14306.5        504.33772      13361.492    
   3400000   959.21807      11685.163      495.79792      13166.473    
   3500000   851.55245      12048.813      512.11453      12959.138    
   3600000   906.37277      11314.647      511.70042      12752.754    
   3700000   889.36698      10698.788      496.42927      12557.199    
   3800000   868.97665      11026.16       505.85144      12355.212    
   3900000   993.67701      10559.121      515.71767      12147.53     
   4000000   886.09579      10964.71       521.97315      11937.052    
   4100000   908.33421      10920.881      511.57033      11733.101    
   4200000   899.33617      11947.318      504.35947      11533.414    
   4300000   925.00594      12094.255      512.73337      11329.499    
   4400000   901.56367      11357.682      506.93961      11128.826    
   4500000   936.50768      10348.311      522.53242      10921.11     
   4600000   910.75627      13194.879      501.8519       10723.361    
   4700000   892.55414      9544.4821      513.23838      10520.564    
   4800000   883.37163      11696.605      518.99763      10315.755    
   4900000   864.77776      10219.232      511.37094      10114.433    
   5000000   897.63577      12628.002      503.46675      9916.4112    
   5100000   865.50462      10728.822      507.84255      9716.7217    
   5200000   887.24841      10362.141      495.06158      9521.8317    
   5300000   919.7458       12763.671      507.17576      9322.395     
   5400000   858.10178      10178.941      513.63553      9120.9299    
   5500000   895.42699      12320.616      508.12861      8921.4375    
   5600000   876.12811      10119.366      494.66563      8726.2496    
   5700000   948.98065      11099.747      502.34935      8528.4846    
   5800000   935.89605      13047.137      530.93294      8322.9142    
   5900000   924.58451      13423.637      495.87285      8127.1818    
   6000000   913.25538      12380.989      507.76258      7928.1035    
   6100000   866.69339      12886.808      506.26324      7729.4682    
   6200000   921.93906      11809.477      510.61785      7529.8362    
   6300000   918.11657      10511.876      482.15121      7337.1153    
   6400000   894.69808      8415.0292      502.88958      7139.1244    
   6500000   937.00116      12985.018      514.83433      6938.6229    
   6600000   934.24785      12362.399      500.67761      6741.1405    
   6700000   955.57281      11576.872      501.49617      6543.4304    
   6800000   890.27534      9780.3871      510.37283      6344.0385    
   6900000   914.56905      13971.132      497.1596       6147.0864    
   7000000   922.81646      12493.064      513.6966       5947.2394    
   7100000   843.23373      12254.683      494.52611      5750.6207    
   7200000   850.92507      9779.3084      505.27792      5552.1731    
   7300000   905.13928      10929.843      513.46293      5352.5734    
   7400000   910.23737      10574.957      516.56908      5152.6932    
   7500000   927.24032      12945.333      510.71243      4953.7208    
   7600000   835.44641      11522.563      510.00086      4754.9181    
   7700000   885.97321      11078.246      506.79881      4556.5562    
   7800000   897.67848      11402.993      498.44037      4359.1543    
   7900000   866.99339      11816.417      509.13231      4160.5508    
   8000000   889.3834       13500.711      500.6217       3962.8369    
   8100000   861.01184      11370.66       502.66232      3764.8824    
   8200000   822.11258      10683.878      506.76968      3566.55      
   8300000   822.46807      11020.147      515.7385       3367.5389    
   8400000   851.92872      8276.8962      518.96745      3168.4197    
   8500000   883.77226      11421.599      495.25439      2971.08      
   8600000   914.63836      12224.903      495.57509      2773.6126    
   8700000   933.77943      11746.808      519.11861      2574.6784    
   8800000   918.05078      12926.037      522.62682      2375.7111    
   8900000   867.36309      12976.194      504.22931      2177.778     
   9000000   860.72297      13590.935      517.36611      1979.2767    
   9100000   837.47577      10510.181      530.1273       1780.4299    
   9200000   868.15417      14221.376      522.45484      1582.0459    
   9300000   907.03135      12589.314      540.89901      1383.3209    
   9400000   881.15745      12064.755      538.90687      1184.934     
   9500000   945.07581      11414.95       581.31796      986.10471    
   9600000   908.9852       12140.005      561.42978      788.08776    
   9700000   906.53165      13509.372      569.98553      590.39843    
   9800000   870.685        11957.328      578.36618      393.11123    
   9900000   901.1637       10241.017      588.17973      196.28754    
  10000000   921.8685       12407.583      613.83993      0            
Loop time of 19595.4 on 1 procs for 10000000 steps with 517 atoms

Performance: 44.092 ns/day, 0.544 hours/ns, 510.324 timesteps/s, 263.838 katom-step/s
99.5% CPU use with 1 MPI tasks x 1 OpenMP threads

MPI task timing breakdown:
Section |  min time  |  avg time  |  max time  |%varavg| %total
---------------------------------------------------------------
Pair    | 19306      | 19306      | 19306      |   0.0 | 98.52
Neigh   | 9.7945     | 9.7945     | 9.7945     |   0.0 |  0.05
Comm    | 44.369     | 44.369     | 44.369     |   0.0 |  0.23
Output  | 152.24     | 152.24     | 152.24     |   0.0 |  0.78
Modify  | 66.046     | 66.046     | 66.046     |   0.0 |  0.34
Other   |            | 16.9       |            |       |  0.09

Nlocal:            517 ave         517 max         517 min
Histogram: 1 0 0 0 0 0 0 0 0 0
Nghost:           1474 ave        1474 max        1474 min
Histogram: 1 0 0 0 0 0 0 0 0 0
Neighs:              0 ave           0 max           0 min
Histogram: 1 0 0 0 0 0 0 0 0 0
FullNghs:        18616 ave       18616 max       18616 min
Histogram: 1 0 0 0 0 0 0 0 0 0

Total # of neighbors = 18616
Ave neighs/atom = 36.007737
Neighbor list builds = 12821
Dangerous builds = 0
write_data FINAL_STRUCTURE
System init for write_data ...
Total wall time: 5:26:35
