LAMMPS data file via write_data, version 10 Sep 2025, timestep = 10000000, units = metal

517 atoms
1 atom types

0 21.781566 xlo xhi
0 21.781566 ylo yhi
0 21.781566 zlo zhi

Masses

1 28.085

Atoms # atomic

7 1 1.0513129574435818 1.4055833637111925 1.024571031445878 0 0 0
130 1 4.040567233050185 1.5207506663484243 2.28923817455588 0 0 0
135 1 6.945872513386363 1.3400045273708519 1.4052354187025922 0 0 0
134 1 8.268351729145001 2.915485160014381 21.654699373156536 0 0 -1
295 1 11.109163404512435 2.660628875530697 2.5438532352930725 0 0 0
263 1 12.317702579118672 1.3778951474995893 1.1333432602155034 0 0 0
260 1 10.656269047383391 21.704485370882836 0.04188469414017604 0 -1 0
262 1 13.629546439782523 2.67954205421879 21.501036953406146 0 0 -1
391 1 17.305375228042152 1.3082866880673492 1.3112845082604412 0 0 0
386 1 16.15219742888302 2.7655855670052722 2.6915870793475936 0 0 0
2 1 21.654408854101014 2.5739541164386335 2.7698242279894485 -1 0 0
390 1 18.800970653747257 2.6105178300208554 21.769113342256365 0 0 -1
40 1 2.8084459799236785 5.627700395406888 2.7081690260421953 0 0 0
36 1 0.08825566101275228 5.48409231354621 0.06344525392930381 0 0 0
129 1 6.252182874310211 3.516925793828077 2.4222531259320523 0 0 0
39 1 4.106393623510425 4.397296540664667 1.185771357299267 0 0 0
168 1 8.56579771388007 5.497614626560181 2.6832557136976396 0 0 0
292 1 9.67338818265886 4.097016885613063 1.318049440815815 0 0 0
517 1 10.996893770260732 5.4225548954929845 21.590430409854598 0 0 -1
257 1 14.840579060846968 4.029847905487116 1.1161121423983316 0 0 0
296 1 13.694623550519262 5.567790829703177 2.5589759976887807 0 0 0
420 1 16.319730477116774 5.6295701467215915 21.638776123141998 0 0 -1
424 1 19.124271701945716 5.456821132037156 2.638805885668001 0 0 0
385 1 20.26527676339965 4.0016461006787365 1.1899538525604363 0 0 0
515 1 1.5223014900460925 7.049094863059158 1.4161597682304745 0 0 0
162 1 5.534063129440456 8.23879617506475 2.6907744628232564 0 0 0
167 1 6.988875229670308 6.900205430539692 1.3231265378071266 0 0 0
166 1 8.130855389813556 8.41061379113506 21.746927147798214 0 0 -1
293 1 11.306440350160406 8.333004024403609 2.562426707226136 0 0 0
290 1 12.275912672796439 6.823043578416279 1.3278887144156943 0 0 0
294 1 13.579800773793 8.020338679252353 21.734019011673 0 0 -1
423 1 17.66160244785637 6.832255845387716 1.3307446554030884 0 0 0
418 1 16.390385724971477 8.373078600454967 2.6385781346808583 0 0 0
34 1 21.764642590849764 8.349645166688873 2.9176411852949706 -1 0 0
72 1 2.8231339196279324 11.00382669594385 2.902860356627506 0 0 0
71 1 1.5246673029685667 12.26836573918408 1.4223865154575928 0 0 0
33 1 4.198180720363997 9.584299647740323 1.3913423541760237 0 0 0
196 1 5.501544016119911 10.944043295791369 0.04055302654372466 0 0 0
200 1 8.162010339138165 11.062183894544038 2.6093743465412893 0 0 0
199 1 6.835522613485584 12.443980069447399 1.2081328937064324 0 0 0
161 1 9.588002150296251 9.701535463491432 1.281141011320773 0 0 0
327 1 12.39470636240351 12.415911400572334 1.5747132054791282 0 0 0
289 1 15.059845550884312 9.693733846156453 1.1258052171457924 0 0 0
328 1 13.734343318287467 11.000995765563555 2.7406823493518493 0 0 0
455 1 17.852126824012544 12.339382540779003 1.4562040198525024 0 0 0
452 1 16.513121272216257 10.895747776437043 21.779362726522685 0 0 -1
417 1 20.532409455327986 9.487723514580699 1.2334653726808331 0 0 0
456 1 19.179530227118075 10.847725662038014 2.81223488844353 0 0 0
65 1 4.126854064227369 15.09697581463876 1.3016091523911402 0 0 0
194 1 5.508664193343646 13.629103185088084 2.529705714461937 0 0 0
198 1 8.491412298373495 13.533693637679693 21.686941360176125 0 0 -1
193 1 9.716719627172042 15.027205652766533 1.2358910015626694 0 0 0
322 1 10.90008680822284 13.557875910497133 2.671310465721306 0 0 0
321 1 15.095054420545969 15.000456027259416 1.3314591225655792 0 0 0
450 1 16.37708399196945 13.642320347001629 2.824222641794384 0 0 0
66 1 0.11386233380766342 13.527797125176535 2.875360217980798 0 0 0
449 1 20.522346966807532 15.01116732875626 1.5207574066212322 0 0 0
454 1 19.183980319572967 13.605811842419136 0.14015387219692219 0 0 0
103 1 1.298831483089644 17.58682830592393 1.5109940094305478 0 0 0
104 1 2.4802423232955606 16.202683389986934 2.8517788058499374 0 0 0
231 1 6.900662268745634 17.857746642256703 1.4091027086801629 0 0 0
232 1 8.400266459965033 16.28860867370168 2.6443278295727675 0 0 0
359 1 12.346742196278948 17.853345253087703 1.2789482982299774 0 0 0
360 1 13.727085590239973 16.495707445601866 2.7755266721354985 0 0 0
487 1 17.728542161951218 17.59856834834868 1.4506027527761738 0 0 0
488 1 19.112110724819505 16.24841474091834 2.81250599194438 0 0 0
513 1 1.958488177194237 21.282051051175998 1.9318859278081 0 -1 0
98 1 21.620785157024745 19.003189923562726 2.6318327871007687 -1 0 0
4 1 21.620204356736508 21.56986676516672 21.72173838446951 -1 -1 -1
226 1 5.642466890266226 18.76278340576546 3.178624901766276 0 0 0
97 1 4.3214707266213725 20.25681283959635 1.5453736135403262 0 0 0
136 1 8.435282102354718 0.03190425539822803 2.9014810807090363 0 0 0
230 1 8.169666632605733 19.319071594588785 0.0015575500522686525 0 0 0
225 1 9.53647449035672 20.32385881465195 1.4554326154204786 0 0 0
354 1 10.897218221144295 19.021501653829493 2.743281539108096 0 0 0
264 1 13.530918756768276 21.598159998741394 2.6389985645838125 0 -1 0
353 1 14.980491644612481 20.334012685661662 1.1555215166603245 0 0 0
482 1 16.35159007399441 19.08431913061662 2.595124815241737 0 0 0
392 1 18.680230057779614 0.10327780113021845 2.7421946385828067 0 0 0
481 1 20.123054252183426 20.538628877755613 1.4043613509128297 0 0 0
3 1 1.9420437997514162 1.4285653987453655 4.238815179073878 0 0 0
8 1 4.1079073627012965 1.3712923784976996 6.3137997433400725 0 0 0
258 1 6.176542076163998 1.4121390709970343 4.266722541688196 0 0 0
142 1 8.215026122864188 2.571130574860047 5.286959525374175 0 0 0
131 1 9.803048992081857 1.2471994705494092 3.9731536913360594 0 0 0
268 1 11.02073465171141 0.11223706231612104 5.565569514682418 0 0 0
259 1 14.823258080811293 1.4178288080305692 4.0034125271352865 0 0 0
270 1 13.50159383307309 2.76047993846562 5.492806602385282 0 0 0
396 1 16.180544189529314 21.69815412317396 5.343920840251675 0 -1 0
398 1 18.91401907284377 2.85153411326906 5.568268481124859 0 0 0
387 1 20.091938396537522 1.5702249903371526 4.000615535909445 0 0 0
5 1 1.2423754211726086 4.296653845016174 4.0191649116551424 0 0 0
1 1 4.2019375413773306 3.4111597508163927 4.1900002036798965 0 0 0
9 1 5.846360415758856 5.6019330852741485 5.534467715682684 0 0 0
133 1 7.380270537590282 4.436954468387257 4.379705605538727 0 0 0
300 1 11.045810885748509 5.505901896496055 5.378700165231887 0 0 0
261 1 12.259513244613757 4.255796693150434 4.0383124670958335 0 0 0
389 1 17.584346778123937 4.179664496622728 4.081530708713375 0 0 0
428 1 16.27551813955814 5.546796621797441 5.195827777238773 0 0 0
44 1 21.730075153251505 5.552692176366708 5.742807268404752 -1 0 0
46 1 2.8759384944252457 8.221721006683143 5.403268833094024 0 0 0
35 1 4.316619195941045 6.902143213161208 4.1182215124218375 0 0 0
174 1 8.260817334730655 8.514015128150113 5.267847788634473 0 0 0
172 1 9.927297257352583 7.107556161348214 4.032862232656172 0 0 0
291 1 15.009051407087039 6.990952024823996 3.9463536971493793 0 0 0
302 1 13.639856738514863 8.244140073164596 5.656960212504782 0 0 0
430 1 19.389600068221217 8.27129384187875 5.344607771501334 0 0 0
419 1 20.60861155073334 6.753888265663664 4.184410625143851 0 0 0
37 1 1.3702182739294992 9.704354476947762 4.197332336936257 0 0 0
76 1 21.536832367958542 11.035434182130802 5.594064566605928 -1 0 0
204 1 5.301298080046111 10.988028470962892 5.266567454832092 0 0 0
67 1 4.075948478912612 12.44443363828712 4.129242161067924 0 0 0
165 1 6.853614620642661 9.792375496207795 3.9013955066338193 0 0 0
332 1 11.144950582629152 11.050333787404334 5.509013702847596 0 0 0
195 1 9.47524712983794 12.224098948113406 4.037048410621668 0 0 0
163 1 12.412457210967933 9.7722295540593 4.220038705079971 0 0 0
323 1 14.941221312295974 12.18758561567817 4.2156526363916065 0 0 0
421 1 17.799232612841916 9.630392513057867 4.067615689239089 0 0 0
460 1 16.563774291211907 11.01507542869317 5.454318673544398 0 0 0
451 1 20.335191350327385 12.241573923916082 4.121923299354923 0 0 0
69 1 1.14672065721629 15.098908690288724 4.369422427198031 0 0 0
78 1 2.7578804222057482 13.860955720957008 5.408189124961593 0 0 0
197 1 7.05238448244172 14.864547806934459 3.99044633505915 0 0 0
206 1 8.303963592602035 13.71095857142328 5.743073740377657 0 0 0
325 1 12.274689909462511 14.906591348464067 4.1521709685943105 0 0 0
334 1 13.590364574509655 13.471792686323486 5.608194666408858 0 0 0
453 1 17.617149315606564 14.92088816180498 4.172245426948116 0 0 0
462 1 19.11049092261648 13.82143935904143 5.459191091153288 0 0 0
108 1 21.673262030147892 16.612536811781478 5.590635905077709 -1 0 0
99 1 4.064243252537545 17.45426597100809 4.131653743856551 0 0 0
236 1 5.582207417748748 16.19728622666949 5.329449429614019 0 0 0
227 1 9.776558382163053 17.535461635838978 4.122354418199202 0 0 0
364 1 11.161997554558992 16.240555554842683 5.667570228772092 0 0 0
355 1 15.115551577562846 17.803147442182283 4.273065366109277 0 0 0
492 1 16.179643256114247 16.297612456489087 5.594292627165493 0 0 0
483 1 20.35641472600079 17.778601656968263 4.145039940328277 0 0 0
110 1 2.4451037453009508 18.930361366593697 5.220877373201332 0 0 0
101 1 0.9844292260314915 20.45538996631713 4.01492817563006 0 0 0
140 1 4.074271978755839 21.235121259982535 4.09954394979402 0 -1 0
514 1 5.786142183826012 21.174395812643276 6.478467719429871 0 -1 0
238 1 8.552244054802662 18.874887334611305 5.640198971331435 0 0 0
229 1 6.881041504119565 20.239389816056963 4.458401069011183 0 0 0
357 1 12.245918529086701 20.451855294258554 4.1874163982116634 0 0 0
366 1 13.578114609978416 19.085551969647838 5.391929294230326 0 0 0
485 1 17.527134469741842 20.44297309818251 4.061346473518457 0 0 0
12 1 21.266593830931882 0.04597499483474842 5.444186185812313 -1 0 0
494 1 18.743997736281376 18.859685671994164 5.440230590003866 0 0 0
15 1 0.992007361474901 1.367140147846432 6.974927367609274 0 0 0
138 1 5.6991406961373166 2.862050916937936 8.339208696325473 0 0 0
143 1 7.23421730001172 1.4027457928020288 7.246705449627909 0 0 0
266 1 10.911497855835124 2.721633751404315 8.330406942022188 0 0 0
271 1 12.28182489879084 1.449784246865048 6.928904243368925 0 0 0
272 1 13.810672648527834 0.006876900378721334 8.237240255588036 0 0 0
399 1 17.675559182434554 1.3234252972483598 6.703012095585383 0 0 0
394 1 16.27835090742068 2.8343844724265437 8.16305326726113 0 0 0
10 1 21.55093574654377 2.8759507203985972 8.479656920486043 -1 0 0
400 1 19.050434443712724 0.00940715533201181 8.029624123154496 0 0 0
14 1 2.0149948647848217 3.4413501370107875 6.28742390043641 0 0 0
48 1 2.7516060004311664 5.418081815231215 8.271147608264876 0 0 0
516 1 4.346480117966768 4.363316637345864 6.903403397584937 0 0 0
176 1 8.477325172718677 5.535667776432869 8.006289924379118 0 0 0
137 1 9.68704261123171 4.006613155319627 6.7137322351832465 0 0 0
265 1 14.872784932641506 4.163950219543028 6.783319413630744 0 0 0
304 1 13.63365495762069 5.653995434615232 8.117208665110818 0 0 0
432 1 18.923276887640245 5.631570821927832 8.27865240531991 0 0 0
393 1 20.136806504328206 4.1476450224204475 7.008372571134041 0 0 0
47 1 1.4852325440251088 6.9161864506462996 6.995668474638413 0 0 0
170 1 5.53617053386688 8.170434780638297 7.981253466046029 0 0 0
175 1 7.112328967054876 7.192357006799237 6.8093472705153815 0 0 0
298 1 10.912665707898476 8.435968048617767 8.230826542283916 0 0 0
303 1 12.1868396413191 6.782965817452099 6.776594077909953 0 0 0
426 1 16.45064631415693 8.120039908178242 8.058499670274209 0 0 0
431 1 17.700527577530895 6.904356293462925 6.654096818475106 0 0 0
42 1 0.05015767882596833 8.23289431968343 8.202904007757631 0 0 0
80 1 2.447510293577279 10.889926743187571 8.054198945823387 0 0 0
79 1 1.2652539347659808 12.29928251809197 6.657710875698885 0 0 0
41 1 4.002770428755979 9.691735832311156 6.743066157242272 0 0 0
208 1 8.199498220121585 11.029890171078733 8.356726873749796 0 0 0
207 1 6.89930393130562 12.186541867784081 6.73081003818929 0 0 0
169 1 9.571248283928655 9.814019273713967 6.920814218851637 0 0 0
335 1 12.281612935935208 12.232521695811457 7.1029314049681 0 0 0
297 1 15.213203372387314 9.632569227155553 6.914513340741385 0 0 0
336 1 13.78183693379589 11.03656267551118 8.311200552904399 0 0 0
463 1 17.99200042800149 12.40369685704837 6.807866795120918 0 0 0
425 1 20.429220256462244 9.41287935014425 6.859032469111208 0 0 0
464 1 19.152695631996405 10.917048392362972 8.22808529620129 0 0 0
74 1 0.09767770500903804 13.64304790765356 8.093279316314732 0 0 0
73 1 4.217248509272795 14.936484101986071 6.79846926087388 0 0 0
202 1 5.528132334457848 13.583882323742952 8.114131482598465 0 0 0
201 1 9.692744566873854 15.011243127401386 7.083913474184249 0 0 0
330 1 11.072186853474669 13.6820227083322 8.27902872091002 0 0 0
329 1 15.011623235710136 14.716708725277316 6.821794957320642 0 0 0
458 1 16.426118037472463 13.457355979208605 8.07353681372137 0 0 0
457 1 20.508184494427287 15.143897126750607 6.752655522304307 0 0 0
111 1 1.2716151120335148 17.656518939564133 6.9323394883868765 0 0 0
112 1 2.741844139184825 16.258376484201108 8.07237839426385 0 0 0
239 1 7.020131467114324 17.393586111025268 6.866973340272177 0 0 0
240 1 8.3178933643875 16.491784682119544 8.430164176365034 0 0 0
367 1 12.441005854981197 17.807447921062035 6.88577664897824 0 0 0
368 1 13.890001573448801 16.287668852419273 8.212997409736559 0 0 0
495 1 17.47066506545909 17.703423803210214 6.927725874346556 0 0 0
496 1 18.983302526392432 16.265112593938227 8.152980590531296 0 0 0
16 1 2.697906127170898 0.23336372241889738 8.14004985199481 0 0 0
234 1 5.613968725080092 18.68842970216332 8.211784304954344 0 0 0
105 1 3.657184747154963 19.962704807193017 7.193748476336982 0 0 0
144 1 8.45929295973417 21.631401803728057 8.362659318929504 0 -1 0
233 1 9.70967510063086 20.298797573895854 6.9888068404752595 0 0 0
362 1 11.123718739408641 19.077069614299294 8.517718889631997 0 0 0
361 1 15.04853949903832 20.34676339963692 6.830398073677699 0 0 0
490 1 16.19685033321189 19.056513742243368 8.322023328607814 0 0 0
106 1 21.61771359010059 19.062509367872483 8.250554205010987 -1 0 0
489 1 20.15269426796831 20.196510442661058 6.720883166485912 0 0 0
22 1 2.6457018489075272 2.8632277429407416 10.963413115387004 0 0 0
23 1 1.222426112188829 1.3326409912727588 12.188035103526552 0 0 0
11 1 4.026566477502356 1.4910966442386944 9.702095625677536 0 0 0
150 1 8.237583859690272 2.63648676969078 11.042037586080365 0 0 0
139 1 9.71008443576439 1.3199226362994996 9.73202847299621 0 0 0
279 1 12.300860253869917 1.483853505923766 12.232067966142367 0 0 0
276 1 11.105318780682055 21.711812624833836 10.931326239813256 0 -1 0
267 1 15.07589920706654 1.3958352861493222 9.660682559028004 0 0 0
278 1 13.666364671857728 2.76860636815185 10.980647069193875 0 0 0
407 1 17.524086172622276 1.5387283510690881 12.216773768895193 0 0 0
395 1 20.16464154194844 1.317888656704929 9.585905766621863 0 0 0
406 1 19.008040315116492 2.797290840000731 10.906071506240067 0 0 0
13 1 1.2485597527744738 4.061605209160225 9.549407112510117 0 0 0
180 1 5.6605034270757555 5.485062466507718 11.06528978806826 0 0 0
141 1 7.071413730735666 4.338459039919771 9.61819159964362 0 0 0
145 1 9.67310305498915 4.1900216819029374 12.139512379578239 0 0 0
308 1 11.09168287514281 5.402927663416957 10.937670452767035 0 0 0
269 1 12.302487188085042 4.139286954672602 9.482106222638905 0 0 0
273 1 14.811922590752086 4.321638246652519 12.328807310581373 0 0 0
397 1 17.612782311796213 4.232866401493456 9.650535170457703 0 0 0
436 1 16.220632381793784 5.558060675665104 10.948069777390876 0 0 0
52 1 21.576368807814916 5.334251571298436 10.808270942175499 -1 0 0
401 1 20.32292398044495 3.969261249959121 12.266234406804793 0 0 0
54 1 2.9070823283176734 8.102653283070362 10.678884956099019 0 0 0
55 1 1.208391762167121 6.760010254510114 12.03690282381948 0 0 0
43 1 4.28698513952684 6.605012733284346 9.532593096101355 0 0 0
182 1 8.228337520421425 8.30420203506451 10.812239938729663 0 0 0
171 1 9.802266959631664 6.8738987279052735 9.527534870325503 0 0 0
311 1 12.423176150108153 6.806874410983786 12.267598822848985 0 0 0
299 1 15.157722956771622 6.97231160436413 9.44679551955932 0 0 0
310 1 13.618792452982557 8.192578161996229 10.747493100947734 0 0 0
439 1 17.560359426814998 6.94767938015781 12.179726208253966 0 0 0
427 1 20.387800663696304 6.777289709828083 9.52037339025165 0 0 0
438 1 19.00406250112064 8.323334545614284 10.799527886608992 0 0 0
45 1 1.4321878725224382 9.468204938865018 9.71318706073199 0 0 0
87 1 1.5703226787303814 12.388781472086489 12.017306393512692 0 0 0
212 1 5.147398327368957 10.855056399596467 10.788677205719912 0 0 0
75 1 4.027709007685584 12.22387872320543 9.345725780205843 0 0 0
173 1 6.73303153868871 9.601980275263392 9.492506426474637 0 0 0
215 1 6.581681713365794 12.185521830585904 12.176593086629932 0 0 0
203 1 9.357659835918708 12.598340724834483 9.587019261382078 0 0 0
177 1 9.563012511771765 9.679603296171662 12.24512203451381 0 0 0
340 1 10.881141813869135 11.101424824588703 10.852593242722511 0 0 0
301 1 12.260260584833988 9.67896817200226 9.5479365436662 0 0 0
343 1 12.275695338661434 12.269065432040529 12.315208687991344 0 0 0
305 1 14.764951310345294 9.550841162665959 12.25038790882961 0 0 0
331 1 15.215701688501309 12.197300008763662 9.567049458792352 0 0 0
429 1 17.63468759750266 9.509689171345853 9.429249512124205 0 0 0
468 1 16.455754384340054 10.81449913040753 10.888887908446653 0 0 0
84 1 0.20171465728059346 10.899106918942362 11.013559512352948 0 0 0
459 1 20.62389050693426 12.12698346133045 9.558215597034327 0 0 0
433 1 20.280433014911548 9.456008906574088 12.31645815716236 0 0 0
77 1 1.3521653357159094 15.08082210850599 9.527314664346184 0 0 0
86 1 2.9359907035249964 13.759515835348438 10.760846164548052 0 0 0
81 1 4.1108357011104735 15.025393941590668 12.172729731234705 0 0 0
205 1 6.9020487746907415 15.01669338007666 9.62913323303905 0 0 0
214 1 8.051607722443704 13.681826114948004 11.136114903959689 0 0 0
209 1 9.630400061012244 15.174177137743428 12.324956150058942 0 0 0
333 1 12.468189164237236 15.106337422234123 9.55758353893845 0 0 0
342 1 13.68380828965007 13.577550607234546 10.835007030380597 0 0 0
337 1 14.898751627244039 14.921691444689767 12.568521580186054 0 0 0
471 1 17.966985912208223 12.078264425447959 12.292271031017005 0 0 0
461 1 17.901183668388498 14.820766555570346 9.470142368835182 0 0 0
470 1 19.26312149488236 13.510459188992927 10.878367547453928 0 0 0
465 1 20.55803011005094 15.051641755491012 12.104175435662581 0 0 0
119 1 1.3165967022346525 17.791019826653745 12.156685590179439 0 0 0
116 1 21.7134175705241 16.42961393113423 10.658375500803851 -1 0 0
107 1 4.092431124423002 17.588836800453368 9.466881907366144 0 0 0
244 1 5.432126507616771 16.291768472696635 10.790156161182178 0 0 0
247 1 6.5723439059176405 17.65724795649402 12.331280124024186 0 0 0
235 1 9.762771170546568 17.754666405006116 9.744506107350563 0 0 0
372 1 11.068712257765593 16.34115087905443 10.898226262579383 0 0 0
375 1 12.313473924542851 17.65500338000534 12.290319258170786 0 0 0
363 1 14.960905505355631 17.537421957380815 9.893808680094512 0 0 0
500 1 16.454991286533286 16.154524703975532 10.98142416129295 0 0 0
503 1 17.756400467674126 17.670308452355194 12.24978703917348 0 0 0
491 1 20.217125048374513 17.753247869391156 9.470030730185938 0 0 0
109 1 1.4440774532271698 20.544080685575036 9.308689617536206 0 0 0
118 1 2.771637042203042 18.982359160761508 10.779113654700952 0 0 0
20 1 0.05567684756472871 21.5625426596875 10.752627111488197 0 -1 0
148 1 5.30370886083952 21.735595791877063 10.997080353065904 0 -1 0
113 1 3.9355505949051715 20.35991837315738 12.278109440557264 0 0 0
237 1 6.714217403748157 20.420396968670442 9.484748417136252 0 0 0
246 1 8.088043960666916 18.957385171910715 11.000984812424761 0 0 0
365 1 12.553855856278629 20.524091085884404 9.764474547890682 0 0 0
241 1 9.746465692140792 20.437942349635875 12.23522735356049 0 0 0
374 1 13.763091423314728 19.091970783895192 11.1674963121194 0 0 0
369 1 14.99820641387863 20.38887724947433 12.381102590651217 0 0 0
404 1 16.19252339647195 0.006409339886263895 11.08501195314668 0 0 0
493 1 17.616896935782485 20.629056725335786 9.365299148598128 0 0 0
502 1 18.884220146196373 19.118504813551446 10.768918438100336 0 0 0
497 1 20.275377862160877 20.348387544114075 12.024863497647184 0 0 0
24 1 2.655599091192515 0.06712875310820365 13.615720880487578 0 0 0
18 1 21.738066110228576 2.554954185784654 13.642115742369283 -1 0 0
19 1 4.035039556199318 1.3733652289229097 14.874382671094073 0 0 0
146 1 5.379780320325928 2.7849920370879757 13.616822550865143 0 0 0
151 1 6.759571870964739 1.3191662074131765 12.225191276028873 0 0 0
152 1 8.10160998872392 21.75515329459489 13.61128226697724 0 -1 0
147 1 9.548705592874027 1.2793846256469514 15.024884707984711 0 0 0
274 1 10.809573326611876 2.707839737268821 13.674055674706912 0 0 0
275 1 15.06244512817941 1.5106618300959107 14.764840057316992 0 0 0
402 1 16.375551892829854 3.0643649094484178 13.506155944528425 0 0 0
403 1 20.308912194237287 1.2004553360458186 14.819490756034918 0 0 0
21 1 1.262709791866538 4.337852540519646 14.808572662204387 0 0 0
56 1 2.633257041517703 5.675181621014042 13.499215467889277 0 0 0
17 1 3.9704894921696425 4.218252342204351 12.299495263924195 0 0 0
149 1 6.902731629986499 4.199166290859902 14.854832398574308 0 0 0
184 1 8.209478893221899 5.504831940561046 13.479589979426292 0 0 0
277 1 12.127362065403103 4.107024602429939 14.889465898229565 0 0 0
312 1 13.395855663196103 5.621026563202659 13.814666488391442 0 0 0
405 1 17.753732193898024 4.078347894590961 15.04160759874155 0 0 0
440 1 19.0016657235501 5.413323123835649 13.530921819150176 0 0 0
51 1 3.979852188123089 6.788498511398234 15.026937406465201 0 0 0
178 1 5.38540742816338 8.135043890734783 13.61438578616096 0 0 0
183 1 6.9481837499084325 6.883325716944076 12.313957196587381 0 0 0
179 1 9.638729824718794 6.920026479631117 14.90459281461475 0 0 0
306 1 10.929065115081107 8.304838420020255 13.448146403265524 0 0 0
307 1 14.948572966335629 6.938056058120415 14.866224329171558 0 0 0
434 1 16.17678472927279 8.321117624008963 13.470063015695853 0 0 0
50 1 0.062247838878747075 8.163142432507035 13.508227559305446 0 0 0
435 1 20.477390162550783 6.882669132428177 14.981640684575654 0 0 0
53 1 1.3607015395994448 9.694211963213288 14.786971244382896 0 0 0
88 1 2.5962615314666495 10.957928081027427 13.384085541353166 0 0 0
49 1 3.9363943366851255 9.441642737791591 12.121049521168384 0 0 0
83 1 3.948393608815861 12.213810383105084 14.81914601439949 0 0 0
181 1 6.784029786961376 9.653433342571747 14.918207469459034 0 0 0
216 1 8.208997633951718 11.012488608517488 13.54839149427958 0 0 0
211 1 9.354128095340936 12.55884481905159 14.998018885534384 0 0 0
309 1 12.133588775132079 9.956117734272246 14.945699284812571 0 0 0
344 1 13.625519940889331 11.10177631992008 13.659767080335257 0 0 0
339 1 15.168691005783273 12.282249205574473 15.012332352911674 0 0 0
437 1 17.706853711148888 9.542745471678044 14.94181668733355 0 0 0
472 1 19.09174892821885 10.78012518606197 13.796687784199548 0 0 0
467 1 20.877842150596656 12.153809813845795 14.846015559548098 0 0 0
85 1 1.2836983129705577 14.92965936832351 14.865107257601961 0 0 0
210 1 5.408163414640868 13.595459908867529 13.633871695407384 0 0 0
213 1 6.5689363766868745 15.128807235350566 15.006982603362033 0 0 0
338 1 10.83277763390046 13.761279021349809 13.599530400748936 0 0 0
341 1 12.041638939499478 14.92152653442826 15.226788994218206 0 0 0
466 1 16.46821020866555 13.552363372182386 13.64091954242099 0 0 0
469 1 17.808844884066435 14.969926436364693 15.044926023200237 0 0 0
82 1 0.14789861665998788 13.658636460831353 13.36662455043893 0 0 0
120 1 2.750617162666278 16.451593891390996 13.54549906146539 0 0 0
115 1 3.954638833880211 17.681233395063227 15.049619712291927 0 0 0
248 1 8.188428272292128 16.461499867889824 13.677948800361857 0 0 0
243 1 9.531291173281556 17.8434519179137 14.966494696665533 0 0 0
371 1 15.120718905237997 17.645680305423486 14.976852470766874 0 0 0
376 1 13.449705366039817 16.302364296220958 13.83356235030124 0 0 0
504 1 19.21055468090865 16.29388177296652 13.488310059810368 0 0 0
499 1 20.46904154881574 17.610766317860175 14.851325136775433 0 0 0
117 1 1.3514906400150222 20.41689866029252 14.978520511594496 0 0 0
114 1 21.750127732090593 19.088954390534298 13.574652759486062 -1 0 0
242 1 5.23870610951901 18.963505924479385 13.650965965655985 0 0 0
245 1 6.674277981663656 20.38790153616307 15.014244545638112 0 0 0
370 1 11.130588971006226 19.054248295496432 13.742146674891371 0 0 0
373 1 12.382563643497143 20.569149879507066 15.119725603431341 0 0 0
280 1 13.637783225317895 0.25647513524483045 13.633947005538827 0 0 0
498 1 16.357017038697208 19.025494597706423 13.522855580453383 0 0 0
501 1 17.760807523421562 20.366230988208248 14.872403521269144 0 0 0
408 1 18.92052473724748 21.753105216640435 13.30395236268223 0 -1 0
31 1 1.104227271340083 1.3257010270697684 17.501742436080708 0 0 0
30 1 2.3754700679097205 2.6672306803537964 16.158184666255163 0 0 0
28 1 21.641127504149036 21.723031912235893 16.220326460248888 -1 -1 0
159 1 6.687080649835934 1.5058061896288604 17.534679840998777 0 0 0
158 1 8.17630755784349 2.9990459109561822 16.29664133041093 0 0 0
287 1 12.281213201780556 1.4158654683839929 17.382568566326146 0 0 0
284 1 10.78377532738561 21.715437567202425 16.366886242267718 0 -1 0
286 1 13.5358571803095 2.756395648722654 15.999906311104153 0 0 0
415 1 17.754504418591917 1.353267040894515 17.623285306708297 0 0 0
412 1 16.409955620902757 0.036062809614618364 16.10428181897941 0 0 0
414 1 19.15618185009498 2.6936164862573606 16.2494293685648 0 0 0
60 1 21.757170174130387 5.545016248335273 16.25198662201614 -1 0 0
25 1 3.8307292034761544 4.085109235938559 17.665701250549834 0 0 0
188 1 5.312282595138999 5.372969224596093 16.281110685311578 0 0 0
153 1 9.508311118614676 4.160471548677221 17.75359051042255 0 0 0
316 1 10.803632006121216 5.620855155047971 16.149604045711722 0 0 0
281 1 14.916591871675033 4.138627005123479 17.349835968932766 0 0 0
444 1 16.29478790694107 5.666579679988265 16.183076655443553 0 0 0
409 1 20.295002103119725 4.171485012470463 17.626547529345828 0 0 0
63 1 1.2408433577425946 6.876384910902384 17.744502246725418 0 0 0
62 1 2.578786465283354 8.317958783527535 16.137836566125884 0 0 0
190 1 8.122741720471327 8.172751740768748 16.32358581305911 0 0 0
191 1 6.555705679758282 6.751548466160879 17.545839137580725 0 0 0
319 1 12.088407043880261 6.971094515974692 17.490465770449305 0 0 0
318 1 13.587863488254207 8.411612999065527 16.10363613874397 0 0 0
447 1 17.826069287139223 6.928389158956132 17.455767860827127 0 0 0
446 1 19.119530526318606 8.213042466942662 16.29706290387062 0 0 0
95 1 1.425196297604693 12.410487347726267 17.756955212211036 0 0 0
57 1 4.162936856700867 9.498401440452508 17.39320465251039 0 0 0
220 1 5.4326673966896255 11.036211545054345 16.21672092883907 0 0 0
223 1 6.595186211018403 12.273055875665545 17.854599509135674 0 0 0
185 1 9.49650093134871 9.478239485911612 17.617759147090908 0 0 0
348 1 10.847337406554866 11.198788966182537 16.404632647206647 0 0 0
351 1 12.438324572462816 12.386385359713431 17.795191720997913 0 0 0
313 1 15.043561604852625 9.545536091462242 17.695075313897433 0 0 0
476 1 16.375299088429593 10.844348008337919 16.491443766895244 0 0 0
479 1 17.811389882194412 12.164606655965159 17.710630383800208 0 0 0
92 1 0.1633927516487277 10.883182735960881 16.35276221056807 0 0 0
441 1 20.688154898197237 9.516746711618307 17.709608943945895 0 0 0
94 1 2.8083124057492475 13.8269052131532 16.335016831650364 0 0 0
89 1 3.88533232493759 15.113562056169023 18.0761433315745 0 0 0
222 1 7.881700446324427 13.806291552803136 16.445894658106287 0 0 0
217 1 9.350187555525851 14.950519773764098 17.91067823997372 0 0 0
345 1 15.105091531842824 15.046895166161026 17.91527352256389 0 0 0
350 1 13.807841952323194 13.766348467099135 16.509998803464065 0 0 0
478 1 19.273854626839253 13.620796481633747 16.245289745660383 0 0 0
473 1 20.42340857965839 15.120291947733948 17.536748356619626 0 0 0
127 1 1.1161159950798003 17.896611685016158 17.665581710340664 0 0 0
252 1 5.14067228243314 16.329541352809105 16.62598142058584 0 0 0
255 1 6.667418047412786 17.57971076426238 17.781652472175267 0 0 0
380 1 10.567518639972011 16.389225643464133 16.411962809222196 0 0 0
383 1 11.939860823189612 17.75569007446897 17.655931734450025 0 0 0
508 1 16.32247180481509 16.18154005532674 16.2670319327769 0 0 0
511 1 17.657706826364688 17.54588845986999 17.543067610709134 0 0 0
124 1 0.04145363526317425 16.34455772070753 16.166253489615624 0 0 0
126 1 2.60741560758459 19.160348955706283 16.415864334878542 0 0 0
156 1 5.306132104046029 0.00029389802124860087 16.44642330135616 0 0 0
121 1 3.979265871708873 20.431333602143233 17.94941250869334 0 0 0
254 1 8.16179875414491 19.094814047033786 16.219046759465282 0 0 0
249 1 9.368423157781548 20.27939762954396 17.660522817066802 0 0 0
382 1 13.608269937790698 18.850380105673104 16.127591570176087 0 0 0
377 1 15.06637990407248 20.432961747895995 17.573952804253054 0 0 0
510 1 18.973893609015708 18.94903154419132 16.20399369415792 0 0 0