LAMMPS (10 Sep 2025)
OMP_NUM_THREADS environment is not set. Defaulting to 1 thread.
  using 1 OpenMP thread(s) per MPI task
Loaded 1 plugins from C:\Users\lmike\AppData\Local\LAMMPS 64-bit 10Sep2025 with GUI\plugins
# LAMMPS input generated from LammpsInputFile with pymatgen v2025.10.7

# STYLES
units metal
atom_style atomic

# SET UP CALCULATION
read_data starting_config.dat
Reading data file ...
  orthogonal box = (0 0 0) to (21.781566 21.781566 21.781566)
  1 by 1 by 1 MPI processor grid
  reading atoms ...
  517 atoms
  read_data CPU = 0.002 seconds
pair_style sw
pair_coeff * * Si.sw Si
Reading sw potential file Si.sw with DATE: 2007-06-11
velocity all create 1000 1561205

# CALCULATION PARAMETERS
fix f1 all nvt temp 1000.0 1000.0 $(100.0*dt)
fix f1 all nvt temp 1000.0 1000.0 0.10000000000000000555
thermo 100000
thermo_style custom step temp press spcpu cpuremain

# RUN CALC AND WRITE OUTPUTS
dump d1 all custom 100 state_dump id type x y z vx vy vz
run 10000000
Neighbor list info ...
  update: every = 1 steps, delay = 0 steps, check = yes
  max neighbors/atom: 2000, page size: 100000
  master list distance cutoff = 5.77118
  ghost atom cutoff = 5.77118
  binsize = 2.88559, bins = 8 8 8
  1 neighbor lists, perpetual/occasional/extra = 1 0 0
  (1) pair sw, perpetual
      attributes: full, newton on
      pair build: full/bin/atomonly
      stencil: full/bin/3d
      bin: standard
Per MPI rank memory allocation (min/avg/max) = 3.12 | 3.12 | 3.12 Mbytes
   Step          Temp          Press          S/CPU         CPULeft    
         0   1000           41656.453      0              0            
    100000   981.37775      13742.924      575.32235      17207.745    
    200000   992.03375      11943.738      415.83594      20300.458    
    300000   970.77422      12916.87       397.30781      21533.647    
    400000   1040.5615      11686.887      436.92115      21476.72     
    500000   954.80229      9659.8855      494.7984       20842.351    
    600000   945.90014      11006.503      499.25831      20323.786    
    700000   971.35312      11368.44       510.79952      19836.029    
    800000   990.19588      12267.118      520.35664      19379.919    
    900000   995.80154      12365.127      491.5437       19096.361    
   1000000   930.81783      10400.204      504.11146      18783.179    
   1100000   986.31466      12157.341      511.47016      18467.781    
   1200000   980.36633      10923.666      506.92149      18185.229    
   1300000   1012.6516      10849.002      504.10913      17923.162    
   1400000   955.04629      11928.399      507.80641      17661.323    
   1500000   944.02165      9627.533       513.31855      17396.156    
   1600000   1032.5111      10758.522      499.42536      17168.235    
   1700000   967.43576      11587.337      514.04028      16915.778    
   1800000   969.62502      13122.571      509.59935      16677.479    
   1900000   973.54014      11849.436      504.53191      16452.01     
   2000000   1021.7239      12306.22       507.65505      16224.39     
   2100000   1022.8805      12101.965      490.2025       16026.071    
   2200000   1041.6439      12128.618      492.54736      15823.793    
   2300000   1042.0745      13478.137      491.0038       15623.586    
   2400000   1011.2988      11838.8        519.98758      15387.143    
   2500000   1021.6962      11515.091      501.60691      15175.371    
   2600000   1018.6054      12661.903      505.95969      14959.673    
   2700000   1021.2993      11009.145      512.14611      14738.857    
   2800000   962.4817       10321.988      500.95897      14531.079    
   2900000   968.63524      11652.49       509.09023      14316.058    
   3000000   1011.8721      13045.331      528.11043      14085.77     
   3100000   942.24781      11015.044      503.028        13879.137    
   3200000   1053.0571      11660.315      492.7689       13681.79     
   3300000   984.39542      10968.643      490.32279      13486.159    
   3400000   1041.2546      11142.365      501.98304      13280.843    
   3500000   1006.4884      12468.023      514.29583      13067.019    
   3600000   994.52449      10303.137      494.68706      12867.974    
   3700000   1037.1538      10935.007      513.01442      12656.464    
   3800000   991.57577      10991.867      503.05222      12452.126    
   3900000   942.63408      11774.832      505.02561      12246.857    
   4000000   1032.9836      11274.533      497.85227      12046.231    
   4100000   1054.4964      12887.864      497.68139      11845.692    
   4200000   966.9896       11814.218      508.69209      11639.129    
   4300000   1002.4508      9574.8873      511.66016      11431.518    
   4400000   1006.58        13187.312      515.39497      11222.658    
   4500000   947.53941      10510.484      511.61304      11016.211    
   4600000   964.59109      11022.16       491.80822      10819.481    
   4700000   987.48226      11969.407      506.92817      10615.631    
   4800000   998.70057      10841.128      501.28499      10414.461    
   4900000   1031.7417      11426.459      499.04588      10214.291    
   5000000   930.28093      9691.5022      499.67327      10013.862    
   5100000   997.94727      12135.338      493.00861      9816.0431    
   5200000   991.48971      15289.461      503.50443      9614.1285    
   5300000   980.80262      9991.2315      501.01001      9413.2156    
   5400000   980.38258      10278.388      495.25648      9214.3267    
   5500000   993.46495      11345.628      509.95627      9010.5656    
   5600000   1038.0407      9558.7819      507.75658      8807.7458    
   5700000   1035.6949      10169.224      502.6233       8606.6495    
   5800000   1030.9943      10675.267      507.05404      8404.368     
   5900000   971.57832      9111.888       511.13998      8201.1627    
   6000000   1010.1413      12425.286      517.25532      7996.6675    
   6100000   965.21494      9683.2294      484.11673      7800.9993    
   6200000   1024.1719      10679.433      492.17683      7602.9064    
   6300000   1025.7424      11962.349      492.95546      7404.4636    
   6400000   996.22052      12226.85       514.92535      7201.0142    
   6500000   1016.1458      10210.598      502.37663      7000.4614    
   6600000   1052.1513      11654.657      500.02211      6800.4369    
   6700000   1014.4806      9654.171       503.31627      6599.7686    
   6800000   951.84289      9965.1993      499.84266      6399.8086    
   6900000   1005.2942      11071.64       496.91324      6200.3754    
   7000000   994.00366      11066.901      507.38343      5999.1108    
   7100000   994.68762      10851.085      492.64392      5800.3723    
   7200000   981.26008      11016.707      509.23205      5598.9444    
   7300000   938.19636      11259.275      500.67701      5398.8961    
   7400000   1032.8744      11363.069      510.1914       5197.5476    
   7500000   986.33204      8513.9266      501.52361      4997.4709    
   7600000   954.24794      9809.9899      509.09281      4796.4759    
   7700000   1005.1016      11944.413      499.82159      4596.6879    
   7800000   977.42625      12438.126      505.58083      4396.2499    
   7900000   962.38883      11203.229      503.60173      4196.0854    
   8000000   1059.811       10443.42       489.49035      3997.392     
   8100000   977.80837      11698.252      483.86366      3799.1175    
   8200000   1014.2338      11252.211      497.29682      3599.4128    
   8300000   1004.9868      11215.061      496.19617      3399.7661    
   8400000   943.66989      11625.216      477.32391      3201.5922    
   8500000   1026.6914      12216.738      498.81219      3001.5592    
   8600000   907.65956      12185.864      513.16489      2800.6031    
   8700000   1025.176       10419.82       510.29698      2599.9505    
   8800000   1008.481       10841.84       513.90997      2399.2167    
   8900000   930.46458      9184.0554      518.25552      2198.4193    
   9000000   979.27294      11447.401      501.89149      1998.4952    
   9100000   1004.3141      10103.343      514.61928      1798.0987    
   9200000   1119.7561      11476.74       527.38471      1597.4252    
   9300000   939.36691      11585.507      531.31817      1396.884     
   9400000   943.1003       10957.626      556.1053       1196.0696    
   9500000   1007.3223      9534.8906      546.49938      995.86349    
   9600000   1005.1583      10618.794      576.09221      795.62456    
   9700000   1002.6782      10717.903      564.0964       596.04941    
   9800000   1028.1911      11827.257      590.83087      396.76566    
   9900000   969.60454      10791.729      599.58397      198.06363    
  10000000   1002.5255      9091.412       626.27816      0            
Loop time of 19768 on 1 procs for 10000000 steps with 517 atoms

Performance: 43.707 ns/day, 0.549 hours/ns, 505.869 timesteps/s, 261.534 katom-step/s
99.5% CPU use with 1 MPI tasks x 1 OpenMP threads

MPI task timing breakdown:
Section |  min time  |  avg time  |  max time  |%varavg| %total
---------------------------------------------------------------
Pair    | 19466      | 19466      | 19466      |   0.0 | 98.47
Neigh   | 20.398     | 20.398     | 20.398     |   0.0 |  0.10
Comm    | 44.443     | 44.443     | 44.443     |   0.0 |  0.22
Output  | 154.61     | 154.61     | 154.61     |   0.0 |  0.78
Modify  | 65.848     | 65.848     | 65.848     |   0.0 |  0.33
Other   |            | 17.01      |            |       |  0.09

Nlocal:            517 ave         517 max         517 min
Histogram: 1 0 0 0 0 0 0 0 0 0
Nghost:           1460 ave        1460 max        1460 min
Histogram: 1 0 0 0 0 0 0 0 0 0
Neighs:              0 ave           0 max           0 min
Histogram: 1 0 0 0 0 0 0 0 0 0
FullNghs:        18618 ave       18618 max       18618 min
Histogram: 1 0 0 0 0 0 0 0 0 0

Total # of neighbors = 18618
Ave neighs/atom = 36.011605
Neighbor list builds = 26338
Dangerous builds = 0
write_data FINAL_STRUCTURE
System init for write_data ...
Total wall time: 5:29:28
