LAMMPS data file via write_data, version 10 Sep 2025, timestep = 10000000, units = metal

507 atoms
1 atom types

0 21.763403 xlo xhi
0 21.763403 ylo yhi
0 21.763403 zlo zhi

Masses

1 28.085

Atoms # atomic

380 1 1.1969941876569856 1.7053306548063127 1.6635570575397949 1 0 0
2 1 2.5814139800234392 0.17188736475656244 2.655553950693395 0 0 0
27 1 2.468243092272034 2.9118935612915564 0.04681858317905352 0 0 1
1 1 5.590170125546478 2.603585192116771 2.6511876645355636 0 0 0
128 1 5.261669127214558 21.69339461674211 0.07773379929592131 0 -1 0
131 1 6.689444159995573 1.3030831297101726 1.2081214265444293 0 0 0
132 1 8.169437644084883 21.723906376593284 2.58489846901302 0 -1 0
253 1 10.695200138059542 2.606046466687192 2.997244243480034 0 0 0
258 1 12.185601777507006 1.3098519242321849 1.4996913879330056 0 0 0
259 1 13.557168835440674 21.574105008467868 2.763252135262201 0 -1 0
386 1 17.789428242791413 1.1833922290932044 1.5677687485152338 0 0 0
381 1 16.553373890732164 2.727738761228523 2.868469700051114 0 0 0
383 1 16.4365709092054 0.03685420088781949 0.2273601295251133 0 0 0
3 1 21.697067670233913 0.34847036655534464 0.14733586856452832 -1 0 0
385 1 18.893217053714796 2.787150120389542 0.19338918394193969 0 0 0
4 1 2.5263512461469415 5.31419746758505 2.622588538444163 0 0 0
5 1 4.077836369834156 4.154852651085033 1.4658607299847017 0 0 0
163 1 8.156157486636275 5.440237742231404 2.675596391807141 0 0 0
126 1 9.46432256332463 3.9570845103939187 1.4700885171079583 0 0 0
252 1 15.032482670157043 3.897416405322746 1.4221432544085502 0 0 0
291 1 13.53230857679591 5.169106652222968 2.7156469000472536 0 0 0
415 1 16.38851508952171 5.4254106599670395 0.3520381447183431 0 0 0
37 1 1.0112747017888621 6.651252203245599 0.8547424669596193 0 0 0
31 1 5.519485088938376 8.071118995511204 2.5328885761799125 0 0 0
162 1 6.835658009090461 6.706334871741219 1.1873817573981287 0 0 0
285 1 10.801903457228722 8.392329029654928 2.5877884785643444 0 0 0
290 1 12.207623138641786 6.739856026795005 1.43381828313272 0 0 0
289 1 13.655350446121483 8.183931042983545 0.05117546032332143 0 0 0
418 1 17.99284996567241 6.377669381040302 1.9885308818433325 0 0 0
413 1 16.383106216207015 7.919284384842175 2.726605927365929 0 0 0
414 1 0.028725993933843563 7.970176754456284 2.478816676848618 1 0 0
417 1 19.089098404435287 7.693017082209511 0.19001760886771507 0 0 0
412 1 20.292570949222146 9.302696194541275 1.3646123740062086 0 0 0
69 1 2.666600983886886 10.930655884727653 2.672244675771239 0 0 0
68 1 1.2550126513246254 12.301304214551454 1.2593742798772651 0 0 0
65 1 21.683798032678684 10.752256236997516 21.715609688016198 -1 0 -1
35 1 4.098601489497848 9.534711499875757 1.461114156817885 0 0 0
191 1 5.470175155444832 10.895887110297645 0.06988206014987235 0 0 0
195 1 8.092132450967444 10.927041885691224 2.857069359463728 0 0 0
194 1 6.889916559283706 12.392247711038744 1.371304045140701 0 0 0
157 1 9.43218010861551 9.672967316142499 1.293092002847881 0 0 0
322 1 12.267100982344076 12.340582649605526 1.5172735509388957 0 0 0
284 1 15.005716981416132 9.344900729730538 1.3505133699128318 0 0 0
323 1 13.670816763024785 10.918091125026066 2.775542022107084 0 0 0
450 1 17.680097708782913 12.143133171373725 1.3173114221883278 0 0 0
447 1 16.27620187257807 10.646147601646762 21.740223047984877 0 0 -1
451 1 19.02113558821068 10.734637200501146 2.702143616011057 0 0 0
67 1 2.766597378883955 13.659043898898428 21.750045316166446 0 0 -1
62 1 4.101732788458219 15.009276524578032 1.2785312333406744 0 0 0
189 1 5.495426646185209 13.825071217797511 2.837758743624962 0 0 0
193 1 8.254206834296916 13.60810374898806 21.71039221939958 0 0 -1
188 1 9.500630679378178 14.971942243635613 1.3687008111349919 0 0 0
317 1 10.779132322528074 13.632737277262764 2.715234534351886 0 0 0
316 1 14.960636321862053 14.989927841137563 1.3862011307782927 0 0 0
321 1 13.61921660434914 13.528703102345544 0.027484868980199195 0 0 0
445 1 16.362130142325103 13.640047118269424 2.760203924164431 0 0 0
63 1 21.669991290465052 13.460575916744903 2.7464245669900595 -1 0 0
444 1 20.33030789461853 14.779021515602938 1.2615648284759813 0 0 0
100 1 1.1781693530808506 17.830422414241987 1.265585225728547 0 0 0
101 1 2.5483882049911117 16.321441511683965 2.45177805302673 0 0 0
223 1 5.401030088764622 16.52640290818449 0.09208414198140528 0 0 0
226 1 6.87039379129579 17.834110407808808 1.5205482188812354 0 0 0
227 1 8.213662003906581 16.39475904730898 2.548768648196272 0 0 0
354 1 12.492351500159794 17.73885794372026 1.2816181675460296 0 0 0
355 1 13.584101026400967 16.288971018497183 2.818654640793077 0 0 0
482 1 17.600890936954716 17.529826440880548 1.453747016600608 0 0 0
479 1 16.246117857408315 16.244405830218287 21.695183847887396 0 0 -1
483 1 19.04259182477491 16.1950410595757 2.8378699934746736 0 0 0
97 1 0.00283322208069672 16.274220394661295 0.031930432953952786 0 0 0
99 1 2.6248290643124825 19.108186212148052 21.694822464941446 0 0 -1
94 1 3.962056166002638 20.366536408868193 1.3564179363358742 0 0 0
221 1 5.321332982159148 19.08526877586386 2.7841571261539717 0 0 0
220 1 9.49511714541383 20.227991734391058 1.3260846344392105 0 0 0
349 1 10.901510076559278 18.91944270710665 2.614992783602071 0 0 0
348 1 14.850249891437455 20.436699112802174 1.2864432469524654 0 0 0
477 1 16.2786241282266 19.10089231098689 2.7672975806738767 0 0 0
476 1 20.242360862273433 20.79765811327863 1.4318894793062815 0 0 0
95 1 0.11827900011482839 19.35489309085721 2.5571048849863938 0 0 0
481 1 19.04667322242821 19.053314309934542 0.11185348158189244 0 0 0
10 1 2.5726797575484803 2.6068255296594773 5.252970018664848 0 0 0
12 1 4.051255638787744 1.3038147099482358 4.020102589401556 0 0 0
136 1 5.42540994589675 21.614422800814925 5.417963759958705 0 -1 0
138 1 7.999970614282744 2.6796902571750536 5.30288668612748 0 0 0
127 1 9.443451782306651 1.1723578965730281 4.129079593092105 0 0 0
254 1 14.854533529051347 1.355761966786096 3.936350721101105 0 0 0
265 1 13.389468656214977 2.5892155494831566 5.458231213480244 0 0 0
387 1 19.310787926494733 0.28705036373965476 3.3017212249388 0 0 0
393 1 19.074780628126582 2.2072254322385936 4.946876064912091 0 0 0
382 1 21.298580956076453 0.20455600909539068 5.187803511776522 0 0 0
6 1 1.0314503772433004 3.7393068451944003 3.7376443058388626 0 0 0
167 1 5.213600541524087 5.505114104307701 5.351165046296702 0 0 0
129 1 6.609835306492042 4.143919705644616 4.026058585548017 0 0 0
295 1 10.72735499630624 5.379311308152788 5.481317907412851 0 0 0
256 1 12.198032006066931 3.9641717684580393 4.210295455124639 0 0 0
384 1 18.004545759953334 4.3137467683808195 3.7802784827778932 0 0 0
423 1 16.49610680071404 5.409319456145524 5.3111505649293065 0 0 0
41 1 21.39879069070204 5.258549341486707 5.1107404831193834 -1 0 0
419 1 20.096429058943844 6.623233795567369 3.6642289325508415 0 0 0
43 1 2.639143838670685 8.192310954224835 5.277571840401076 0 0 0
32 1 3.892304933891299 6.818260626903713 3.9110185148568317 0 0 0
169 1 8.0800985597547 8.007641862225547 5.227625431673681 0 0 0
158 1 9.571741619721921 6.841239704190379 3.968282000148723 0 0 0
286 1 14.875794201266554 6.548815485627828 3.9781847874202003 0 0 0
297 1 13.537041340192413 7.977564878899466 5.346145527894665 0 0 0
425 1 19.222066302630303 8.031772949541608 5.334772512723757 0 0 0
34 1 1.3466028837045898 9.507309094092276 3.8516295562668903 0 0 0
199 1 5.364148015990088 11.013828876734033 5.4813539653252334 0 0 0
64 1 3.904878709092379 12.43820951607039 4.043773645227443 0 0 0
160 1 6.61295205374973 9.512491795428309 4.043996913717047 0 0 0
190 1 9.633439659224695 12.22582763030011 4.183094548451707 0 0 0
327 1 10.930290484597485 10.684705685285435 5.440678960973796 0 0 0
288 1 12.224030380967164 9.468000020685084 4.023890857316454 0 0 0
318 1 15.059898272958906 12.082072781325538 4.1042664776704125 0 0 0
416 1 17.799737326348374 9.275922001691967 4.174154883116196 0 0 0
455 1 16.26189834505957 10.71736844863888 5.430263738223272 0 0 0
73 1 0.0005148123624564545 10.69328797153328 5.3209678772127464 0 0 0
446 1 20.37676154714229 12.13639954519628 4.067240156445224 0 0 0
66 1 1.2757770576398293 15.04785542690345 4.182961147008639 0 0 0
75 1 2.4923113999187723 13.538608336375725 5.418104195783296 0 0 0
192 1 6.874847909911336 15.132508732426727 4.123238911276951 0 0 0
201 1 8.143649366653442 13.553085160570145 5.437608769848827 0 0 0
320 1 12.237383486159732 14.714795640774547 4.0908139079762895 0 0 0
329 1 13.56526291688159 13.324551531199905 5.519537207412834 0 0 0
448 1 17.711110133357572 14.866356759905475 4.1323458893942595 0 0 0
457 1 19.083364766204674 13.632667990301286 5.594796089982517 0 0 0
96 1 3.8119636775443064 17.636775498960507 4.018649192246645 0 0 0
231 1 5.224775519243088 16.320820357772934 5.4422575146377 0 0 0
222 1 9.624735858886613 17.516641291654416 3.9842065783048253 0 0 0
359 1 10.96319773686983 16.10248085500896 5.477747950913355 0 0 0
350 1 14.910100974491357 17.613848179679305 4.137543275446159 0 0 0
487 1 16.269587380641926 16.272028741525418 5.363900476740682 0 0 0
105 1 21.724620628601 16.404114016368283 5.546476014832827 -1 0 0
478 1 20.48780421116808 17.68616555109878 3.919929153853075 0 0 0
7 1 1.1988664517299479 20.7529649882705 4.02809361142342 0 -1 0
107 1 2.560497198236784 19.26951749115946 5.45511660803932 0 0 0
224 1 6.92991339441429 20.309461585634484 4.010910187970299 0 0 0
233 1 8.040232533646204 18.77514477965773 5.381837969269659 0 0 0
263 1 10.902342206611737 21.61889054131161 5.484408095860284 0 -1 0
352 1 12.209339972137483 20.249771544867432 4.071551801905192 0 0 0
361 1 13.525189624979134 18.99096632047969 5.468787491381238 0 0 0
391 1 16.192554513249334 21.741878710259538 5.38074544861048 0 -1 0
480 1 17.75903341069743 20.35281525323375 4.201682511243216 0 0 0
489 1 19.23537324808933 18.992577297124658 5.520471647907969 0 0 0
98 1 1.1119271965099107 1.2342408413927222 6.645684922543878 0 1 0
14 1 2.7498200163915993 21.689684942998042 8.023414517844051 0 -1 0
134 1 5.38108764395123 2.5370107395544985 7.9179732505375116 0 0 0
139 1 6.874050467501251 1.22081990191781 6.737887200395234 0 0 0
140 1 8.15778922520982 21.702435208642527 8.173736504272128 0 -1 0
261 1 10.753447514025712 2.6781110838669417 8.135691948899321 0 0 0
266 1 12.108446120392388 1.2528403984703718 6.85919749297628 0 0 0
267 1 13.466201360617346 21.602006574185076 8.142664941754344 0 -1 0
394 1 17.65722842325199 1.2569904844969053 6.5293364300367225 0 0 0
389 1 16.246111339165868 2.552689617194828 8.0361972261672 0 0 0
13 1 21.511522558207506 2.614966155165299 7.995069214310472 -1 0 0
45 1 2.7941885932893977 5.440315124681693 8.023514807300668 0 0 0
8 1 4.012018741933895 3.901985696343332 6.623785464555446 0 0 0
171 1 8.040494303029536 5.41253243778102 8.164992565241146 0 0 0
133 1 9.309489449854109 4.020924277814767 6.667659645038899 0 0 0
260 1 15.023014330720205 3.956356252565682 6.562514940277472 0 0 0
299 1 13.669950753329305 5.252124299618544 7.9867922870683445 0 0 0
392 1 17.80184946532496 3.7478102349781657 9.450890100435263 0 0 0
388 1 20.199561983714126 3.7030638643917904 6.476765920948195 0 0 0
427 1 19.06950643455371 5.154089240763978 8.023327186616756 0 0 0
44 1 1.3492450631680892 6.652269481993514 6.4093401805780825 0 0 0
165 1 5.540570111959858 8.36100169148855 8.196388796139956 0 0 0
170 1 6.7281874004171405 6.81705955724123 6.74960221258193 0 0 0
293 1 10.92849754473922 7.984157094918945 8.144157171842199 0 0 0
298 1 12.099626143567884 6.610634931726175 6.7622226167437205 0 0 0
164 1 9.42016550999823 9.309183692269803 6.7975249683513965 0 0 0
421 1 16.310078081973632 7.976954615305077 7.9555712227370785 0 0 0
426 1 17.79288442137728 6.672347296018094 6.772172322445276 0 0 0
39 1 0.10823395464723617 8.032209630462209 8.029722772727418 0 0 0
420 1 20.47430143925448 9.387949944962038 6.788376478280444 0 0 0
77 1 2.6535391463072373 10.809113034438385 8.222632635495799 0 0 0
76 1 1.212340548523725 12.033874944064303 6.897830799705878 0 0 0
42 1 1.2397034993941867 9.452308990149145 9.424158541703088 0 0 0
38 1 4.024213500858533 9.569815493396742 6.861084301142858 0 0 0
203 1 8.094255184931393 10.83229086274814 8.196566255130929 0 0 0
202 1 6.777834975103341 12.112372292329118 6.7554765994718675 0 0 0
330 1 12.136104878368219 12.018324657108304 6.90624986386311 0 0 0
198 1 9.525028081587502 12.25715132631484 9.38095369543121 0 0 0
292 1 14.96881087493727 9.397778934907725 6.712743514754683 0 0 0
331 1 13.66247814367899 10.830405510589594 8.134745057328363 0 0 0
458 1 17.636103508676637 12.192651943414814 6.71867699406952 0 0 0
459 1 19.143219208507208 10.832357411675398 8.045835099912185 0 0 0
71 1 21.733897302438233 13.607721314677997 8.279201629056626 -1 0 0
70 1 3.959954861595016 15.09585427609753 6.7766832183362435 0 0 0
197 1 5.291771925216694 13.513028387170868 8.079510212334068 0 0 0
196 1 9.503188252529 14.918052315351401 6.725199930996186 0 0 0
325 1 10.792369976351202 13.726420992577939 8.034190396057076 0 0 0
324 1 14.966852957143375 14.738773741188774 6.834162071204679 0 0 0
453 1 16.336500311679803 13.441419515850928 8.15688924550369 0 0 0
452 1 20.305574208022904 15.059640071570431 6.925268525656073 0 0 0
108 1 1.2812118142773705 17.742791261315737 6.730355087294107 0 0 0
109 1 2.5724760693940376 16.409099749666265 8.062759294915287 0 0 0
234 1 6.766462584223034 17.43716676775685 6.895576484970242 0 0 0
235 1 8.064526810038371 16.107591483958895 8.29429962620245 0 0 0
362 1 12.2660813610829 17.488061877853095 6.8431335899395265 0 0 0
363 1 13.544964458137091 16.079966698825366 8.206749826664296 0 0 0
490 1 17.640946880011413 17.622172046789807 6.653376831217204 0 0 0
491 1 18.842064440430335 16.491379491564025 8.21061802740583 0 0 0
102 1 3.937789849925736 20.35336439838607 6.883139404420329 0 0 0
229 1 5.498562110473184 18.912707611798428 8.163212412076746 0 0 0
228 1 9.308371841803542 20.119625923765017 6.672338552418574 0 0 0
357 1 10.714514641316523 18.8097063355321 8.124940660257474 0 0 0
356 1 14.989482928208615 20.273669613944385 6.86576921860699 0 0 0
485 1 16.296574344898087 18.884997430085935 8.290003312030564 0 0 0
395 1 18.83475850126693 0.015866373975443805 8.05464123275511 0 0 0
103 1 21.742109988668204 19.068866335084586 8.19801536091132 -1 0 0
484 1 20.400922495553584 20.425791007011302 6.856823708886503 0 0 0
20 1 2.6754468374620366 2.9954719837311656 10.690914980399542 0 0 0
21 1 1.4864797556576863 1.5478243028139331 12.090814787216974 0 0 0
18 1 0.02951700172519267 0.014546392786068753 10.82685046500332 0 0 0
9 1 3.9230560780121357 1.5165693481602158 9.4101518888221 0 0 0
144 1 5.314143869069657 0.134859177113112 10.687506656529761 0 0 0
146 1 8.123999942133398 2.901121493406009 10.783304436235886 0 0 0
147 1 6.656543902233904 1.5785786197906573 12.169703246419441 0 0 0
135 1 9.444100085281017 1.3900203022569844 9.446335701074432 0 0 0
274 1 12.051987878598458 1.3119784486565755 12.143937762852287 0 0 0
262 1 14.740487968882949 1.2904255878973871 9.438395948252404 0 0 0
273 1 13.501463941011737 2.6786299270589913 10.852607864065849 0 0 0
402 1 17.59009218314344 1.302823036611562 12.325334524812183 0 0 0
390 1 20.164237037096054 1.103873525273179 9.519873557547703 0 0 0
401 1 19.10393907435577 2.591865388495663 11.069740993413761 0 0 0
11 1 1.2231559803310001 4.1958184956609985 9.202761318745452 0 0 0
175 1 5.369697691982137 5.585270340040783 10.838845906280532 0 0 0
15 1 4.103891916413218 4.217532632916467 12.259384632778925 0 0 0
137 1 6.606197842645692 4.164414626180339 9.454761926730757 0 0 0
264 1 12.131122702304014 3.996436595032567 9.585676251403635 0 0 0
141 1 9.482531522397982 4.22076393232397 12.226418660468537 0 0 0
303 1 10.880247952528464 5.540288194742054 10.732334800042628 0 0 0
268 1 14.866179763758204 4.140003788792035 12.067560609717408 0 0 0
431 1 16.409150397024245 5.225828964671837 10.661977990132687 0 0 0
49 1 0.039384521503681214 5.41905302487018 10.838250976082298 0 0 0
396 1 20.492917812447097 4.113920904330684 12.255827582130648 0 0 0
51 1 2.6582581113225 8.307811067956655 10.712241641272977 0 0 0
52 1 1.3966817088855112 6.809623686950862 12.05354292336701 0 0 0
40 1 4.061802636880532 6.821126612123423 9.416560758856388 0 0 0
177 1 8.118755795396513 8.299352481768663 10.841837165131158 0 0 0
178 1 6.8355078686290955 6.831662593339298 12.280680247199829 0 0 0
166 1 9.359340863212719 6.826071054916368 9.55346529922695 0 0 0
306 1 12.31728069456725 6.709056911972794 12.106547169081995 0 0 0
296 1 12.362531509814415 9.476151890370375 9.566247621629197 0 0 0
294 1 14.931181512156495 6.650913322678429 9.328083276725962 0 0 0
305 1 13.814581319182778 8.084840908064457 10.784629654466466 0 0 0
434 1 17.696656079855707 6.820884167977865 11.821355534339595 0 0 0
422 1 20.43133709854179 6.579998105179015 9.27208840829721 0 0 0
433 1 19.200622396389857 8.081435498305071 10.718393429826724 0 0 0
84 1 1.4256661652045195 12.232361454605147 12.181224616835813 0 0 0
81 1 0.049596616488695074 10.944846452329445 10.783981594044048 0 0 0
46 1 4.287864279048444 9.423678754152743 12.172287026073654 0 0 0
72 1 4.11955239658296 12.397895840802592 9.550470796053721 0 0 0
207 1 5.645309724061313 11.057721589432504 10.867668059481673 0 0 0
168 1 6.779366046654642 9.62846653848574 9.513939825207082 0 0 0
210 1 6.8925081644984 12.359916461246861 12.221013055605367 0 0 0
172 1 9.485899440868083 9.487000792760652 12.283980976582747 0 0 0
335 1 10.842831815998005 10.894411332280598 10.799746804987308 0 0 0
338 1 12.255146607666635 12.177016881057101 12.24606178533354 0 0 0
326 1 14.940848073620721 12.27127554029774 9.578957911097245 0 0 0
300 1 15.069591264432882 9.562703668204755 12.321006960737986 0 0 0
424 1 17.73008107056614 9.419352226028325 9.368603476684665 0 0 0
463 1 16.275785913534044 10.83712887264218 10.819267701091341 0 0 0
466 1 17.723530345855334 12.020857132828942 12.266684344720723 0 0 0
454 1 20.380652037459036 12.263862937993077 9.546477930762041 0 0 0
428 1 20.449525839936726 9.49226617742804 12.10968750724788 0 0 0
74 1 1.349139079361549 14.910101413431152 9.607199562939323 0 0 0
83 1 2.7661159571840663 13.689192213497035 10.967531138868585 0 0 0
78 1 4.045002459242331 15.076878719025403 12.401014583293824 0 0 0
200 1 6.635108405272435 14.888573700475112 9.582607691489589 0 0 0
209 1 8.320475467986865 13.653714491127062 10.859202412767992 0 0 0
204 1 9.561076701010668 14.992109071034161 12.28502797399501 0 0 0
328 1 11.9742299485056 14.982155115911576 9.548238300903535 0 0 0
337 1 13.553885897535938 13.72087830438217 10.912900313096623 0 0 0
332 1 14.901759734562981 14.944213218503 12.371159456123666 0 0 0
456 1 17.676253150933437 15.079148634592741 9.596727374776657 0 0 0
465 1 18.972777483445707 13.461698082303911 10.955494319881488 0 0 0
460 1 20.491181841116795 14.775844668408396 12.35079896462591 0 0 0
116 1 1.226806746061339 17.425864196347185 12.124587559676575 0 0 0
104 1 4.008434291407552 17.704353873455627 9.469365559112752 0 0 0
239 1 5.3322468840934185 16.44935338859894 10.914514013114479 0 0 0
242 1 6.793454830590746 17.746364784694237 12.318342969141943 0 0 0
230 1 9.288099740511157 17.6753618376407 9.651187266728316 0 0 0
367 1 10.853884700908019 16.373954414973895 11.022986980627456 0 0 0
370 1 12.350060485486674 17.722128671484768 12.370165903837115 0 0 0
358 1 15.04525604064686 17.422174745802295 9.513459352636549 0 0 0
495 1 16.32889907862843 16.3998715536593 10.953503035162509 0 0 0
498 1 17.603409388625476 17.645287726788546 12.251677170440065 0 0 0
113 1 21.648318554235132 16.10181174231074 10.83381445961661 -1 0 0
486 1 20.32551143920548 17.683001315801008 9.576652134176223 0 0 0
106 1 1.379154788160345 20.425453852851636 9.450716015510212 0 0 0
115 1 2.667121142543811 18.94464391967091 10.788407213944348 0 0 0
110 1 4.218072988387903 20.405624057728158 12.132185658093837 0 0 0
232 1 6.74833134660222 20.300560867928045 9.4244059634944 0 0 0
241 1 8.12136838060463 19.26690549740055 11.028638890469175 0 0 0
271 1 10.780759422001776 0.016759847500292684 10.756077635234591 0 0 0
236 1 9.544754817018484 20.596764140922534 12.325268066231175 0 0 0
360 1 12.12713427825568 20.28147830574496 9.453712404183845 0 0 0
369 1 13.6657388794813 19.04579980972304 10.797721732000072 0 0 0
399 1 16.18744293592999 0.014549387361004307 10.937725503083898 0 0 0
488 1 17.470944566751616 20.455868766345137 9.500071186068187 0 0 0
497 1 18.902314807941554 19.105137990596184 10.867134927998343 0 0 0
492 1 20.399201320048125 20.437163155362732 12.173160391179216 0 0 0
17 1 4.076191951187859 1.6891038989171392 15.014061672786791 0 0 0
142 1 5.314823626817155 2.835155095572897 13.57624911935611 0 0 0
148 1 8.084120739160166 0.25410889521956787 13.523774939776194 0 0 0
143 1 9.547220843026096 1.5694143634593773 14.943518122822702 0 0 0
269 1 10.973936841695522 2.86537654053832 13.598760452267625 0 0 0
270 1 14.855629131849287 1.437677663703711 15.044434477866742 0 0 0
275 1 13.591409042754432 0.11708816582272519 13.38286295310593 0 0 0
397 1 16.130313339190995 2.8773671582129725 13.65099142982834 0 0 0
16 1 0.017453763422246027 2.7047069785036766 13.601536361733135 0 0 0
398 1 20.392732951511963 1.2489603309186907 14.905375774491507 0 0 0
19 1 1.2822414446556227 4.19607589561954 14.978383045816157 0 0 0
53 1 2.5970794705113014 5.400536614414232 13.561281413109942 0 0 0
145 1 6.67029324397764 4.061534319487445 14.931775662204876 0 0 0
179 1 8.131108401821084 5.426092999168729 13.71091659474348 0 0 0
272 1 12.347067993334234 4.026191639248578 15.066940195424797 0 0 0
307 1 13.616701629295148 5.436317725010184 13.606716062686798 0 0 0
400 1 17.803825132712618 4.253647843680195 14.991042599872015 0 0 0
435 1 19.06946521148481 5.65362629560304 13.441668614304906 0 0 0
48 1 4.031534927730262 6.696716177095219 14.98342406127801 0 0 0
173 1 5.451616192195675 7.996712432371187 13.571439714251209 0 0 0
174 1 9.520906429362086 6.746990045979076 15.043619638945328 0 0 0
301 1 10.819804638028515 8.031723094278828 13.639296640285934 0 0 0
302 1 15.15319973381309 6.914964829721226 14.743474775484545 0 0 0
429 1 16.55189185560582 8.198419250319049 13.318095712802966 0 0 0
47 1 0.18173307829242447 8.27201287648083 13.539119697977052 0 0 0
430 1 20.509291332508138 6.783868713155068 14.858714719816719 0 0 0
50 1 1.5209993011940057 9.513438502447622 14.874781127646422 0 0 0
85 1 2.796000259702903 10.95258993158151 13.538564838898713 0 0 0
80 1 4.179342163173678 12.242758168988443 14.96066294194737 0 0 0
176 1 6.775056109996622 9.353168976405895 14.97629579267163 0 0 0
211 1 8.056499092772844 10.955422740598829 13.632258652137203 0 0 0
304 1 12.068636611837528 9.517387223293527 14.990143211984376 0 0 0
206 1 9.44494324768329 12.374737190180786 14.954232502667528 0 0 0
339 1 13.598407128714618 10.870788639021907 13.620212364322462 0 0 0
334 1 15.000787195856322 12.38770619596871 14.878485394573373 0 0 0
432 1 17.606682921079027 9.499147222728293 14.972923369043906 0 0 0
467 1 19.150878651783167 10.819957964517766 13.692680534916729 0 0 0
462 1 20.354681697147065 12.223988151244221 15.017620748992462 0 0 0
82 1 1.2028114039882976 14.92607343687655 15.063094235838218 0 0 0
79 1 0.12906379153531441 13.365470431015687 13.685629987911561 0 0 0
205 1 5.572977984312272 13.745032594006835 13.503181036132528 0 0 0
208 1 6.829461315420124 15.006282292334397 14.94695909252864 0 0 0
333 1 10.90927269293803 13.5692817053332 13.541394352712976 0 0 0
336 1 12.03956276628235 14.998936953487917 15.02608838342172 0 0 0
461 1 16.370235574595927 13.632330947192909 13.557947260332115 0 0 0
464 1 17.591639547356518 14.893205317752704 15.112018729539978 0 0 0
117 1 2.4784509909681485 16.421663229320863 13.674973072645178 0 0 0
112 1 4.054991128410471 17.727639929522365 15.016446512153431 0 0 0
243 1 8.149577288330477 16.440501581689563 13.62354394862776 0 0 0
238 1 9.432205519353355 17.97414602815722 15.095053474762562 0 0 0
366 1 14.919851110359579 17.716371766850713 14.972040438297238 0 0 0
371 1 13.456998715757694 16.400039598562692 13.755718584641295 0 0 0
494 1 20.581839815735908 17.69727080222449 14.976404000236379 0 0 0
499 1 19.006388911924915 16.24559877734098 13.676443226675271 0 0 0
22 1 2.9281928144882143 0.1626362080102659 13.444767910791978 0 0 0
114 1 1.4820086698181325 20.60143651045538 14.724977288928915 0 0 0
111 1 0.04134926818096259 18.998904716844034 13.430716004867772 0 0 0
237 1 5.489221159435706 19.009026041267617 13.665164946494569 0 0 0
240 1 6.799943638489895 20.48282925405634 14.930215283163554 0 0 0
365 1 10.843932242840362 19.40503508979588 13.754484222469728 0 0 0
368 1 12.357908010391233 20.65562850015224 15.010139555137922 0 0 0
364 1 14.903856626377818 20.427168044323405 12.144167710164636 0 0 0
493 1 16.206280703520488 19.131839161047196 13.709799263910835 0 0 0
496 1 17.62202289984742 20.427158826597136 15.091569353685614 0 0 0
403 1 18.99719026932278 0.00896529789248035 13.66311366362867 0 0 0
29 1 1.358759775747931 1.4167658267609766 17.696311323064908 0 0 0
28 1 2.7086416956011354 2.8851262448531863 16.41200553594102 0 0 0
152 1 5.306048170094195 0.0362722146431409 16.21939693846777 0 0 0
154 1 8.043326387957398 2.5988147424580488 16.33349601295776 0 0 0
155 1 6.712542911582148 1.3735751396997917 17.531133332748624 0 0 0
282 1 12.260725320296544 1.4600936490538408 17.848106018142946 0 0 0
279 1 10.844350641232905 0.08445341065362512 16.38993412959952 0 0 0
281 1 13.558036499234662 2.7681604459242695 16.525683924731357 0 0 0
410 1 17.50683098987512 1.3943724195055174 17.579011209674523 0 0 0
26 1 0.053627283651305646 0.028769260110362183 16.36324978990249 0 0 0
409 1 19.040100950000344 2.5670696217355697 16.260850150518706 0 0 0
23 1 4.112507365489912 4.08726110272773 17.704748105446683 0 0 0
183 1 5.3980771394785005 5.510587784772146 16.339322285824835 0 0 0
149 1 9.38049762916627 4.036788605715193 17.63505290460565 0 0 0
311 1 10.905957364159594 5.3243294129836904 16.33103694318396 0 0 0
276 1 15.005552252573525 4.229436215362075 17.566996700859217 0 0 0
439 1 16.3600289465549 5.534857098697282 16.213663529879625 0 0 0
57 1 21.507741319792206 5.31686885798116 16.342198732830493 -1 0 0
404 1 20.19978145305756 4.0048615025082555 17.68859590812054 0 0 0
59 1 2.7720619715567687 8.161431927491709 16.32663257320227 0 0 0
60 1 1.4149303594008855 6.879310625620094 17.579669252275128 0 0 0
185 1 8.238908316497255 8.059625957989772 16.349819942284984 0 0 0
186 1 6.8742886487663775 6.707310795232016 17.774962859927303 0 0 0
314 1 12.159619425733613 6.693454111795518 17.6662445600481 0 0 0
313 1 13.572543982614869 8.000314222903917 16.248521748396662 0 0 0
442 1 17.635248194350563 6.816874378152724 17.63842585404789 0 0 0
441 1 18.994055410663723 8.034404191767997 16.165750459794754 0 0 0
92 1 1.388498474535796 12.173266079770334 17.655021380062497 0 0 0
89 1 21.75187042814643 10.79699291107812 16.325602756607815 -1 0 0
54 1 4.180915344838507 9.42015780268796 17.661089610746824 0 0 0
215 1 5.33397342721781 10.72542198151431 16.277236109713662 0 0 0
218 1 6.587602173857284 12.38921625824797 17.63749901133857 0 0 0
180 1 9.301184597852345 9.556328582734853 17.637001383218152 0 0 0
343 1 10.7614690368358 10.966200180412402 16.385236619196338 0 0 0
346 1 12.200448484832016 12.375237563847154 17.666286658879542 0 0 0
308 1 14.83500182056588 9.33223855280243 17.740934727555942 0 0 0
471 1 16.233181965035875 10.874601757524001 16.276689183984278 0 0 0
474 1 17.66336504781816 12.156033425245667 17.622505677573173 0 0 0
436 1 20.502474785486903 9.301906256827602 17.601079811448837 0 0 0
91 1 2.663177856180819 13.555419399156433 16.280456344675105 0 0 0
86 1 3.8926223441428798 15.08245464681016 17.715253290197936 0 0 0
217 1 7.973842891224851 13.642408955946726 16.34979537173653 0 0 0
212 1 9.363716789798655 15.099646580576538 17.630857666114643 0 0 0
340 1 14.869676558523235 14.876443316459753 17.60975869456948 0 0 0
345 1 13.567728594713335 13.663086646129914 16.11333716188098 0 0 0
468 1 20.233404238046496 14.993291088040108 17.706741003040435 0 0 0
473 1 19.00665058720526 13.613478567954932 16.367185836032533 0 0 0
124 1 1.1817658395970954 17.819849530670414 17.71969015086875 0 0 0
247 1 5.3977438565491065 16.3806153266396 16.30176786707257 0 0 0
250 1 6.675448697435942 17.84494548472817 17.787222469826194 0 0 0
375 1 10.61765001112685 16.425298370615394 16.249992946749273 0 0 0
378 1 12.217769987909653 17.67346808938107 17.585186817204445 0 0 0
503 1 16.169491222404947 16.353705157999183 16.358059647782035 0 0 0
506 1 17.61691390207755 17.790353132442647 17.75039496572286 0 0 0
121 1 21.762035065252487 16.337193970072832 16.445066987389072 -1 0 0
123 1 2.599787417005906 19.1279369166154 16.223099796536403 0 0 0
118 1 3.9518992805632522 20.380095665399274 17.74820251624198 0 0 0
249 1 7.878254297289322 19.267642716500156 16.398947893631455 0 0 0
244 1 9.418850111133231 20.532786136858842 17.60118538452551 0 0 0
372 1 14.929982026584321 20.462695200053318 17.742856353293966 0 0 0
377 1 13.643318983713842 19.003876379745446 16.30534482554056 0 0 0
407 1 16.20658170156211 0.031420355043890374 16.32730367444031 0 0 0
500 1 20.285209699076933 20.527523836968363 17.74152624590961 0 0 0
505 1 19.135837945338498 19.008532428948534 16.339022323348235 0 0 0
30 1 2.6779633028910936 21.713103140641923 19.092857448546212 0 -1 0
25 1 3.9527816304367582 1.4806918567989271 20.50222065189362 0 0 0
150 1 5.500322596377812 2.6750034981187047 19.166850400388576 0 0 0
130 1 8.223145503069775 2.7872583988808945 21.758454046213455 0 0 -1