LAMMPS (10 Sep 2025)
OMP_NUM_THREADS environment is not set. Defaulting to 1 thread.
  using 1 OpenMP thread(s) per MPI task
Loaded 1 plugins from C:\Users\lmike\AppData\Local\LAMMPS 64-bit 10Sep2025 with GUI\plugins
# LAMMPS input generated from LammpsInputFile with pymatgen v2025.10.7

# STYLES
units metal
atom_style atomic

# SET UP CALCULATION
read_data starting_config.dat
Reading data file ...
  orthogonal box = (0 0 0) to (21.763403 21.763403 21.763403)
  1 by 1 by 1 MPI processor grid
  reading atoms ...
  507 atoms
  read_data CPU = 0.003 seconds
pair_style sw
pair_coeff * * Si.sw Si
Reading sw potential file Si.sw with DATE: 2007-06-11
velocity all create 800 1098393

# CALCULATION PARAMETERS
fix f1 all nvt temp 800.0 800.0 $(100.0*dt)
fix f1 all nvt temp 800.0 800.0 0.10000000000000000555
thermo 100000
thermo_style custom step temp press spcpu cpuremain

# RUN CALC AND WRITE OUTPUTS
dump d1 all custom 100 state_dump id type x y z vx vy vz
run 10000000
Neighbor list info ...
  update: every = 1 steps, delay = 0 steps, check = yes
  max neighbors/atom: 2000, page size: 100000
  master list distance cutoff = 5.77118
  ghost atom cutoff = 5.77118
  binsize = 2.88559, bins = 8 8 8
  1 neighbor lists, perpetual/occasional/extra = 1 0 0
  (1) pair sw, perpetual
      attributes: full, newton on
      pair build: full/bin/atomonly
      stencil: full/bin/3d
      bin: standard
Per MPI rank memory allocation (min/avg/max) = 3.117 | 3.117 | 3.117 Mbytes
   Step          Temp          Press          S/CPU         CPULeft    
         0   800            31.340495      0              0            
    100000   804.41182     -8570.3199      455.26561      21745.548    
    200000   787.53445     -7839.2127      434.06779      22051.507    
    300000   800.65832     -8162.1304      488.9476       21163.837    
    400000   809.29652     -6502.2882      571.0945       19911.697    
    500000   817.95149     -5775.7442      549.34383      19222.098    
    600000   787.19441     -6419.9271      562.22494      18636.348    
    700000   815.90524     -6438.8312      556.31502      18192.24     
    800000   798.03241     -6213.8952      560.99616      17796.971    
    900000   758.95057     -6991.4941      563.06109      17443.318    
   1000000   848.03639     -5321.7767      563.28425      17124.243    
   1100000   787.73523     -5608.154       567.29329      16820.751    
   1200000   823.10849     -5240.9893      562.12495      16550.348    
   1300000   782.63192     -5861.0564      543.60071      16334.747    
   1400000   807.51194     -7146.8978      545.78126      16119.151    
   1500000   746.01033     -6155.641       558.61882      15884.011    
   1600000   809.43418     -6381.4059      547.27789      15675.362    
   1700000   845.04133     -5942.8916      561.21017      15447.617    
   1800000   819.94837     -6537.2536      562.11132      15224.076    
   1900000   819.85364     -4866.2506      569.26051      14995.815    
   2000000   817.18683     -5894.5352      551.42224      14795.544    
   2100000   757.40181     -6333.6489      570.11309      14574.71     
   2200000   841.31473     -5374.3323      551.13528      14379.419    
   2300000   778.5526      -6584.9347      562.29446      14173.277    
   2400000   752.26646     -5711.1108      555.44449      13976.439    
   2500000   803.13535     -5635.8492      580.15276      13757.942    
   2600000   813.72773     -5866.774       571.79456      13550.165    
   2700000   832.68545     -5022.9849      569.19308      13346.985    
   2800000   809.67659     -5968.0896      574.08086      13141.922    
   2900000   802.48238     -6142.0346      573.51183      12939.412    
   3000000   801.58421     -6373.381       566.29806      12743.96     
   3100000   774.15086     -5210.6132      578.4244       12541.486    
   3200000   748.05931     -6119.0368      580.89637      12339.298    
   3300000   819.39936     -5948.6329      568.31374      12146.669    
   3400000   786.80017     -5398.0209      547.7691       11967.831    
   3500000   752.21611     -6612.6469      568.3959       11776.477    
   3600000   791.51029     -6553.2018      579.44197      11580.017    
   3700000   816.9161      -5679.4174      579.74222      11384.696    
   3800000   757.10701     -6351.8397      570.01079      11195.382    
   3900000   818.81654     -6024.8021      562.08501      11010.648    
   4000000   816.68378     -6380.6223      553.80807      10830.244    
   4100000   846.44236     -5759.4491      571.70051      10641.699    
   4200000   829.82575     -5329.0027      554.44637      10461.321    
   4300000   834.60537     -5467.0378      574.43127      10272.626    
   4400000   796.03927     -6517.8863      555.99247      10091.942    
   4500000   778.5932      -6384.9583      555.88069      9911.3396    
   4600000   803.40695     -5666.9066      552.39232      9732.1015    
   4700000   821.9218      -6292.0853      566.98436      9547.5332    
   4800000   834.47826     -5342.0053      558.25023      9366.2958    
   4900000   836.13738     -4960.0653      567.76453      9182.0201    
   5000000   798.10871     -6177.3853      560.82915      9000.2483    
   5100000   748.94013     -6557.4325      567.44809      8816.614     
   5200000   723.02061     -6455.0575      570.09925      8632.5082    
   5300000   831.80812     -5498.9355      553.38479      8453.4289    
   5400000   783.90601     -6088.9503      567.12715      8270.5592    
   5500000   811.17489     -6580.4885      568.95057      8087.465     
   5600000   782.57066     -5479.7892      543.18102      7911.1844    
   5700000   823.09388     -6293.8409      572.6387       7727.485     
   5800000   839.13764     -6193.4279      570.25719      7544.6264    
   5900000   770.58353     -6842.0397      553.26884      7365.7638    
   6000000   770.49837     -6201.7764      553.4975       7186.7887    
   6100000   774.20226     -6501.85        549.05502      7008.6927    
   6200000   790.18367     -6361.8917      579.22908      6824.6513    
   6300000   735.17601     -6892.3433      558.45537      6644.7435    
   6400000   744.94289     -6808.804       554.87267      6465.5124    
   6500000   754.20929     -6293.5519      577.71183      6282.4144    
   6600000   806.65898     -5871.6236      561.63493      6102.1719    
   6700000   781.98174     -6264.6207      569.25062      5920.8217    
   6800000   785.81289     -5897.4584      554.4392       5741.8469    
   6900000   819.66208     -5897.4712      556.43685      5562.5409    
   7000000   829.34573     -5190.7036      561.5224       5382.5258    
   7100000   822.24309     -5928.2118      559.53391      5202.8234    
   7200000   768.65655     -6495.1901      567.0267       5022.2299    
   7300000   777.48589     -6128.9267      551.44337      4843.5958    
   7400000   834.81111     -6603.9484      557.20289      4664.2298    
   7500000   821.41056     -6077.2176      579.708        4482.5387    
   7600000   843.49179     -5915.5604      558.33679      4303.1746    
   7700000   812.69409     -5680.3708      565.2889       4123.1593    
   7800000   795.49068     -5799.1677      561.14521      3943.5923    
   7900000   755.78391     -6896.4078      583.75967      3762.2246    
   8000000   789.30187     -5944.9791      572.35784      3581.9616    
   8100000   767.36528     -6600.6483      577.30233      3401.4846    
   8200000   805.89794     -6562.1258      564.73424      3222.0308    
   8300000   744.58416     -6796.0313      578.13982      3041.7934    
   8400000   821.02151     -6549.0378      545.66066      2863.6901    
   8500000   793.58581     -6531.7417      562.57789      2684.4929    
   8600000   833.60364     -6022.7529      567.28379      2505.0892    
   8700000   772.32331     -6952.1502      585.78539      2324.9254    
   8800000   805.71665     -5648.9229      585.40797      2144.9914    
   8900000   825.47338     -7161.6464      566.48096      1965.9676    
   9000000   778.51052     -5784.4007      569.0479       1786.9108    
   9100000   785.09436     -6449.0599      582.73699      1607.5188    
   9200000   806.04556     -6307.3881      565.11627      1428.7614    
   9300000   824.57701     -5928.1714      568.77469      1249.9571    
   9400000   777.39504     -6960.1401      564.97185      1071.2919    
   9500000   776.89984     -6367.863       579.54197      892.42751    
   9600000   819.56419     -6186.1255      571.25591      713.79899    
   9700000   813.89418     -5984.3222      587.91011      535.09082    
   9800000   769.63404     -6407.8924      572.29765      356.65314    
   9900000   848.05664     -6370.9447      622.83916      178.14706    
  10000000   773.61972     -6329.3868      656.55583      0            
Loop time of 17788.9 on 1 procs for 10000000 steps with 507 atoms

Performance: 48.570 ns/day, 0.494 hours/ns, 562.149 timesteps/s, 285.010 katom-step/s
99.6% CPU use with 1 MPI tasks x 1 OpenMP threads

MPI task timing breakdown:
Section |  min time  |  avg time  |  max time  |%varavg| %total
---------------------------------------------------------------
Pair    | 17507      | 17507      | 17507      |   0.0 | 98.41
Neigh   | 1.7543     | 1.7543     | 1.7543     |   0.0 |  0.01
Comm    | 44.504     | 44.504     | 44.504     |   0.0 |  0.25
Output  | 150.24     | 150.24     | 150.24     |   0.0 |  0.84
Modify  | 68.3       | 68.3       | 68.3       |   0.0 |  0.38
Other   |            | 17.34      |            |       |  0.10

Nlocal:            507 ave         507 max         507 min
Histogram: 1 0 0 0 0 0 0 0 0 0
Nghost:           1416 ave        1416 max        1416 min
Histogram: 1 0 0 0 0 0 0 0 0 0
Neighs:              0 ave           0 max           0 min
Histogram: 1 0 0 0 0 0 0 0 0 0
FullNghs:        17778 ave       17778 max       17778 min
Histogram: 1 0 0 0 0 0 0 0 0 0

Total # of neighbors = 17778
Ave neighs/atom = 35.065089
Neighbor list builds = 2255
Dangerous builds = 0
write_data FINAL_STRUCTURE
System init for write_data ...
Total wall time: 4:56:28
