LAMMPS data file via write_data, version 10 Sep 2025, timestep = 10000000, units = metal

507 atoms
1 atom types

0 21.800341 xlo xhi
0 21.800341 ylo yhi
0 21.800341 zlo zhi

Masses

1 28.085

Atoms # atomic

6 1 1.4130906174605693 1.3830163379167077 1.3118853244355568 0 0 0
98 1 2.9166948811538576 21.67718926934918 2.625420481221826 0 0 0
12 1 5.394521989422068 2.9691553711825645 2.625788011211025 0 0 0
128 1 5.498500152215205 21.624348141835906 0.021672905858156594 0 -1 0
131 1 6.726210375707646 1.317088076746506 1.4676423168158874 0 0 0
132 1 8.195311127353733 0.05613807378556438 2.8875631671929813 0 0 0
130 1 7.9048480894048465 2.907858489787515 0.0905646839944371 0 0 0
253 1 10.703771867799983 2.8716312082862 2.5977012449546915 0 0 0
258 1 12.068163871928576 1.5160624841079116 1.4014749942743356 0 0 0
255 1 10.580339815404741 0.2539779631226901 0.10133911044206786 0 0 0
257 1 13.642111288898489 2.9129328030866417 0.04962916499404089 0 0 0
259 1 13.538247310513485 0.17566134713906673 2.801327536246507 0 0 0
386 1 17.77959607205259 1.6104999551030863 1.6156066890712253 0 0 0
381 1 16.380285104339986 2.935124962289477 2.847816339063916 0 0 0
4 1 0.08013089947856145 2.795527485332954 2.900789728895945 0 0 0
385 1 19.038628274404847 2.917809336747834 0.18518266226462246 0 0 0
387 1 18.99065719053669 0.056794244452510335 2.912157044410614 0 0 0
37 1 2.742196833638169 5.624978775719379 2.630787729369253 0 0 0
2 1 4.082471015251478 4.15401033944733 1.211881949952148 0 0 0
159 1 5.342189928185844 5.710155677451326 21.763041411438696 0 0 -1
163 1 8.02574788380966 5.677959774347573 2.698130665945604 0 0 0
126 1 9.258581119134687 4.195995073824222 1.4015155262876229 0 0 0
287 1 10.73637463885515 5.493932449773307 0.032966670278049615 0 0 0
252 1 15.097379178537247 4.2959929304276825 1.3681465001004038 0 0 0
291 1 13.780504207924016 5.579353100916706 2.7052971114085067 0 0 0
415 1 16.450566376389258 5.45224205384426 0.09915447249888082 0 0 0
33 1 20.598585745008286 4.374159362776396 1.536822636994619 -1 0 0
418 1 18.94941603917993 5.713137292701958 2.899000548013793 0 0 0
414 1 1.4338241390670337 6.952870707530495 1.259638539452551 1 0 0
41 1 21.75948058323296 7.985342338478281 2.5017760061539493 -1 0 0
160 1 5.420918486855187 8.563067566439079 2.7457275810713044 0 0 0
162 1 6.475716639546669 6.972430992707138 1.4450712018550196 0 0 0
161 1 8.076845236348433 8.035059358826144 0.31666580929028526 0 0 0
285 1 10.920718567133132 8.513632807137972 2.8441009037360816 0 0 0
290 1 12.074606260992148 6.9059401123935595 1.407924093645656 0 0 0
289 1 13.71329786184533 8.057941777979522 0.08369951485712473 0 0 0
417 1 17.668036822777665 6.840221691312676 1.502100007250821 0 0 0
413 1 16.400677889662735 8.219054615706082 2.678558036827273 0 0 0
451 1 19.122340845288207 8.080280985581638 0.08436844801143549 0 0 0
31 1 1.2217733241367497 12.289002199291767 1.6282827056754332 0 0 0
69 1 2.1941586002591444 10.616827844909002 3.1055880197774393 0 0 0
68 1 21.74809881344841 11.057756238580216 0.04884929082096527 -1 0 0
35 1 3.8022766182615317 9.752108691659899 1.4121250185304457 0 0 0
191 1 5.415287492888793 10.80382717098255 0.005528668039287018 0 0 0
195 1 7.914229318316671 10.97077801792342 2.8632727081354252 0 0 0
194 1 6.619084153357352 12.412089023945873 1.4390101075738926 0 0 0
157 1 9.406375539404602 9.6118118194464 1.465232149984189 0 0 0
284 1 14.973109616166017 9.63665534319756 1.2268876470903496 0 0 0
323 1 13.471680624509297 10.892715226682224 2.70653138941708 0 0 0
450 1 17.716163321236543 11.958775445240706 1.244465915747778 0 0 0
447 1 16.24387206914422 10.902411743771113 21.529064287824742 0 0 -1
65 1 20.479122826072416 9.464061629523492 1.286885085665336 -1 0 0
457 1 19.170939456636553 10.785274680183475 2.538912968884464 0 0 0
446 1 21.615240004692463 13.758351298311101 2.8511795506750173 0 0 0
62 1 3.866462810532455 14.736947710997478 1.4517539612554957 0 0 0
189 1 5.165717768636663 13.505262369227866 3.055140596330058 0 0 0
188 1 9.472419703340384 14.954748956909938 1.6017246530972078 0 0 0
322 1 12.176062767447407 12.237732156147795 1.336288352900233 0 0 0
317 1 10.879991598320432 13.505043109526987 2.971058708564501 0 0 0
316 1 14.941908841444418 15.117559584045901 1.4740588379901987 0 0 0
321 1 13.619880902892941 13.578887294847037 0.4106474510249574 0 0 0
445 1 16.451712986744997 13.67214411071977 2.3981659807139177 0 0 0
444 1 20.189958449600738 14.979415575357962 1.5147608706133704 0 0 0
100 1 1.513401105648438 17.466760450518883 1.2370565361411026 0 0 0
101 1 2.793483713643988 16.236772757006754 2.7741129286814616 0 0 0
223 1 5.217768628149631 16.063206244816268 21.70854096443215 0 0 -1
226 1 6.844576490847832 17.48081893506086 1.4725022404417083 0 0 0
227 1 8.178153957041673 16.37412618311237 2.779019377636257 0 0 0
354 1 12.110657135919235 17.694958991111005 1.3317733931534197 0 0 0
351 1 10.563423046387145 16.32251502427311 0.09433793756274833 0 0 0
355 1 13.458923624715647 16.611629203592994 2.957637520646135 0 0 0
482 1 17.557172600185517 17.55613451250998 1.356408140288656 0 0 0
483 1 19.065271950521854 16.45340294885615 3.035625469193468 0 0 0
95 1 0.03985575081710899 19.085090111583856 2.5578151040414094 0 0 0
221 1 5.330294663280452 18.97718098700443 2.758019035267247 0 0 0
94 1 4.1025046579822035 20.26958041545155 1.1715777901507693 0 0 0
220 1 9.293551850136136 20.527960350468884 1.2093205387279198 0 0 0
349 1 10.980892647507037 19.18279783790793 2.618067228599191 0 0 0
348 1 14.995739972761328 20.433805148323813 1.4693634485743952 0 0 0
353 1 13.568488623365113 19.044611865398963 0.09686532883224906 0 0 0
383 1 16.058714048690785 0.30398206691064544 0.24899797996851564 0 0 0
477 1 16.493318227767343 18.981349653282763 2.8271763579636287 0 0 0
476 1 20.285111701852866 20.48296981354209 1.4317124037850542 0 0 0
3 1 21.758090556956923 0.11072186226397562 0.08654135159246736 -1 0 0
8 1 2.7434871670203296 2.6736852089787106 5.416656384557836 0 0 0
7 1 4.11377075802324 1.4970631043205087 3.9875646818116857 0 0 0
138 1 8.02678420394685 2.987642453411085 5.572810924522522 0 0 0
127 1 9.381613158724672 1.6208459899315526 4.141963521511368 0 0 0
263 1 10.703913770846363 0.23483040074555198 5.5545769021501945 0 0 0
254 1 15.114164790805669 1.4343447962925262 4.203775137333313 0 0 0
265 1 13.672132705917415 2.9007374516595767 5.385188391999973 0 0 0
382 1 20.470582213551836 1.2698853878858172 4.3509797805245825 0 0 0
388 1 19.23350922269104 2.9122326189259544 5.635952180264275 0 0 0
1 1 1.4801470247391861 4.3501352825589406 4.114046676154918 0 0 0
43 1 0.43516156079039947 5.652607044639308 5.640361515767789 0 0 0
167 1 5.192660681318086 5.494921226909841 5.528174281814898 0 0 0
129 1 6.760604588580473 4.238072777387235 4.173877737279058 0 0 0
295 1 10.946911453117014 5.63734033830034 5.484982437222904 0 0 0
256 1 12.421857663995976 4.209560014434581 3.850261777188067 0 0 0
419 1 17.77761669446734 4.148119298942758 4.307655492515486 0 0 0
423 1 16.60006896851285 5.664836771640031 5.5311428331249095 0 0 0
412 1 2.3466978977012363 7.88222180625177 5.854633087653821 1 0 0
32 1 3.8672485304887836 6.991962500150354 4.168967810002578 0 0 0
169 1 8.142897022294944 8.324973206676571 5.3613916860716015 0 0 0
158 1 9.445164840202589 7.019569793710167 4.060519270364825 0 0 0
286 1 15.076538827733941 6.978538290335938 4.292681417839409 0 0 0
297 1 13.49082179816325 8.170632658443122 5.641258741336043 0 0 0
393 1 20.489560837749984 6.922611849888099 4.377351358344889 0 0 0
425 1 19.55783881639497 8.388170396025084 5.978644696732432 0 0 0
420 1 0.8339341576448533 9.261434089132399 4.413531274936332 1 0 0
64 1 5.173798376693494 10.904910288110568 5.741362203293614 0 0 0
75 1 3.7416482847631345 11.970743585124922 4.258342670411127 0 0 0
199 1 6.6084487719332285 9.879125292841197 4.259407973711678 0 0 0
327 1 11.03850717707478 10.98840644183682 5.737473705957485 0 0 0
190 1 9.45584373401561 12.108814549106716 4.215188191380151 0 0 0
288 1 12.216689775299933 9.675162375220927 4.3295547988285366 0 0 0
318 1 15.038550803001476 12.168035643192907 3.9265864994672914 0 0 0
416 1 17.99368043743873 9.27008333643129 4.221231808877872 0 0 0
455 1 16.392152896859074 10.76725404954593 5.3483462664280355 0 0 0
44 1 21.343456413856497 10.83619410378672 5.600692476998788 -1 0 0
73 1 20.252352316609848 12.197409191437526 4.104591950241701 -1 0 0
63 1 1.2913284249903305 14.894012993372675 4.176065642531022 0 0 0
66 1 2.5552638872038806 13.44349684087071 5.50411600806262 0 0 0
192 1 6.631333425456082 14.873319595204613 4.177029646807522 0 0 0
201 1 7.911122213121461 13.321489695720325 5.35106945066328 0 0 0
320 1 12.549457825703623 14.921485314653397 4.250493455653357 0 0 0
329 1 13.777186574533372 13.474420309661227 5.684358201123378 0 0 0
448 1 17.640864822758697 14.889503195772724 4.024639307070667 0 0 0
458 1 18.947272853550437 13.469592642989367 5.241101619598159 0 0 0
96 1 4.291770555911631 17.47720793485374 4.076558389005267 0 0 0
231 1 5.301984644691867 16.355150838586372 5.742071690172506 0 0 0
222 1 9.59832568686113 17.77233583345855 4.157511024862002 0 0 0
359 1 10.899486665102893 16.280512766970745 5.446244412174665 0 0 0
350 1 15.13215664907973 17.88834296633767 4.3260914782866235 0 0 0
487 1 16.441544679788546 16.25963791787013 5.526548294244885 0 0 0
105 1 0.05380643151985964 16.34271333530083 5.397747823656708 0 0 0
478 1 20.678591793900175 17.871372804891173 4.242816194802496 0 0 0
107 1 2.892423471507837 18.946520323671283 5.4347392435437705 0 0 0
10 1 1.5796244174185528 20.179203974153364 3.9838583766240623 0 -1 0
136 1 5.419360511738576 0.016251962431237388 5.199295861482979 0 0 0
233 1 8.14839807768152 19.233626008569182 5.4254218223159905 0 0 0
224 1 6.774807036642631 20.405788237200078 3.9742074195965844 0 0 0
352 1 12.220650237613524 20.756389944672684 4.164206149310234 0 0 0
361 1 13.672743319972938 19.378371408217753 5.460572099496829 0 0 0
391 1 16.46218174534015 21.787205583073753 5.44714755597666 0 -1 0
480 1 17.772722199711975 20.363845282971987 4.134741762149643 0 0 0
380 1 0.1869678021449772 21.553168086002987 5.551335300397115 1 -1 0
489 1 19.062238601218592 19.093920347612098 5.450660876505654 0 0 0
484 1 1.4803308836196751 1.2781428921821825 7.0783055198672065 1 1 0
13 1 2.9802586002311577 0.054408294881292694 8.269956222864039 0 0 0
9 1 5.596696158307885 2.9307633416872623 8.112704058958137 0 0 0
139 1 6.629444731120935 1.4454973063946295 6.6030260101976985 0 0 0
140 1 8.12179783289735 0.25031778874098 8.047555648514695 0 0 0
266 1 12.171452780018985 1.529355740884316 6.747938528729509 0 0 0
261 1 11.087475802359032 2.9307250550912065 8.191579457594381 0 0 0
267 1 13.50278375758582 0.08366063584604143 8.10515419098113 0 0 0
394 1 18.031553440277897 1.437453360247702 6.885407387566924 0 0 0
389 1 16.397651786146824 2.8766036257558847 8.152760047427847 0 0 0
11 1 21.777250397862726 2.691595739572178 8.170707153917107 -1 0 0
18 1 19.257103539328376 21.712304025332106 8.283433594115909 -1 -1 0
45 1 2.4843225224384287 5.8695329319305936 7.661801703595662 0 0 0
49 1 1.0514057864990882 4.5557958106816265 9.218881083564234 0 0 0
134 1 3.8737721938169454 4.092915768503321 6.863078857668403 0 0 0
171 1 8.073367154685831 5.594745354470071 8.25396642134562 0 0 0
133 1 9.349499333404264 4.263825763919443 6.886107528182752 0 0 0
299 1 13.747063893835348 5.45677417006584 8.424890607385409 0 0 0
260 1 15.234519845783115 4.274088022374284 6.852694243549535 0 0 0
384 1 20.60419105964241 4.262435785540887 6.875184939066804 0 0 0
427 1 19.300379802628683 5.511522062032815 8.470732594104556 0 0 0
165 1 5.374804983704232 8.34837436978732 8.298110350119993 0 0 0
170 1 6.674982241770434 6.915218435383846 6.83692553792386 0 0 0
293 1 10.978370872839616 8.405797034112561 8.099760428415607 0 0 0
298 1 12.261010814413666 6.812642500413949 7.079984298921807 0 0 0
421 1 16.521487394510444 8.224912657672546 8.118554538951365 0 0 0
426 1 17.91180153951056 6.895473027889312 7.0560786965674245 0 0 0
76 1 1.5570249649991157 11.535148222684649 6.928110613560323 0 0 0
77 1 2.5175754171640485 10.390981793746855 8.85431288471319 0 0 0
38 1 3.8160884071421077 9.489788107601052 6.994006276813627 0 0 0
203 1 7.870609510240755 10.78856245416389 8.450739063788268 0 0 0
202 1 6.647547537703687 12.180402057183258 6.921225584468782 0 0 0
164 1 9.424503192192219 9.633466210674346 7.02464951379121 0 0 0
292 1 14.939850985818977 9.610652303028882 6.894252427681186 0 0 0
331 1 13.878542282245135 10.962518307954854 8.536564418778989 0 0 0
459 1 17.636371154428836 12.153799283244181 6.836970937119959 0 0 0
454 1 19.23041908675527 10.441667641630861 7.605930755987893 0 0 0
70 1 3.9661208479214807 14.925372346057573 6.8597255773300905 0 0 0
197 1 5.20888572067856 13.472781112208581 8.257245875135123 0 0 0
330 1 12.38317396193247 12.36469098154366 7.346869919178294 0 0 0
196 1 9.372412527828272 14.88929986823097 6.710395289341648 0 0 0
325 1 10.726111657745635 13.83610769240723 8.324646833537344 0 0 0
324 1 14.912132068793328 15.061610585147022 6.834248887788331 0 0 0
453 1 16.391188523753243 13.501406362375763 8.284227019772125 0 0 0
71 1 0.3252031090870524 13.399183616711793 7.850945731788264 0 0 0
452 1 20.420902463842413 14.718842657343666 6.835545480275786 0 0 0
108 1 1.4075189670921953 17.9292136305918 6.791077269401103 0 0 0
109 1 2.628995452065876 16.28092292143807 8.083632399708812 0 0 0
234 1 6.827442316454456 17.67106050242018 6.9580919169707425 0 0 0
235 1 8.255183846574532 16.322734923076816 8.22974418586352 0 0 0
362 1 12.100350665316814 17.76507738492285 6.74711821135487 0 0 0
363 1 13.461000184445753 16.27318201942112 8.165352834628136 0 0 0
490 1 17.82416703401031 17.71987311215967 6.786578344608928 0 0 0
491 1 19.155118435539283 16.282564728199524 8.167518650840318 0 0 0
229 1 5.449616713571876 18.942627092608223 8.168706467254793 0 0 0
102 1 4.153888802654059 20.293174925707742 6.78534534330418 0 0 0
228 1 9.650314793576623 20.651396967476817 6.932236999786573 0 0 0
357 1 10.813054647726338 19.040865370397768 8.193132485877788 0 0 0
356 1 15.054470521669646 20.525880644882918 6.909276998956533 0 0 0
485 1 16.49329881953262 19.115725348088603 8.209854066216478 0 0 0
103 1 0.012741615274354245 19.13334231391599 8.33561225054244 0 0 0
395 1 20.4032448924094 20.37187295446475 7.013543370474203 0 -1 0
20 1 2.4180617669425057 3.0883047179494265 10.64484891415261 0 0 0
390 1 0.04639154061965647 0.0612768090316792 11.098966194754732 1 0 0
14 1 4.424580097229029 1.6281651900196665 9.637838352409664 0 0 0
144 1 5.453001109123496 0.27764428750883624 11.119556558150034 0 0 0
146 1 8.266155994363105 3.0605418083913807 10.796723467825355 0 0 0
147 1 6.859533084062992 1.6309880923701212 12.39491429336012 0 0 0
135 1 9.503375047312435 1.5990978236967155 9.478025905539424 0 0 0
274 1 12.204662319560365 1.2383780260850206 12.131467124382343 0 0 0
262 1 14.784348421924692 1.4223038114515547 9.560650394297872 0 0 0
273 1 13.694091884771542 2.7105125181128393 11.066160575464185 0 0 0
402 1 17.625762174662867 1.4078716428464078 12.403637070524619 0 0 0
399 1 16.416458591361383 0.0014255158282086289 10.89555532172153 0 0 0
401 1 20.48847819249827 1.4531563026158871 9.64532025269001 0 0 0
392 1 19.144414554511993 2.713252554075398 11.031944115712516 0 0 0
175 1 5.241159395475172 5.509095694779147 10.838173890091149 0 0 0
15 1 3.860093256863973 4.367764715655422 12.200300616233525 0 0 0
137 1 6.744619857433598 4.2616022956923025 9.627285250297586 0 0 0
141 1 9.603805736989342 4.1208696317541 12.225718465742307 0 0 0
264 1 12.472779047806814 3.9690408971627877 9.586628230918656 0 0 0
303 1 11.068715536288899 5.359544759353203 10.80114308003566 0 0 0
268 1 14.992335808616835 4.298058159293061 12.395173499522047 0 0 0
431 1 17.75215189122929 4.027472132819747 9.55254561159314 0 0 0
434 1 16.391186764333497 5.538281136466808 10.814424713371782 0 0 0
52 1 21.179704681946124 5.994220612009497 10.580084194519591 -1 0 0
396 1 20.538580581071752 4.082956892407474 12.079485226679054 0 0 0
39 1 2.5086399695799297 8.44403179892111 10.792695469259783 0 0 0
51 1 1.081367883958084 7.149795329331688 11.90842296826194 0 0 0
40 1 3.956793066241802 6.8342736015438525 9.384409321068421 0 0 0
177 1 8.183000278857216 7.99729775213651 11.25712751865307 0 0 0
178 1 6.762523602744557 6.705279178549231 12.326040419146715 0 0 0
166 1 9.740990514840695 6.817868017471539 9.464571974872053 0 0 0
294 1 14.991623737390638 7.175910990093389 9.46931821338928 0 0 0
305 1 13.58417620766615 8.34691203874526 10.906239385747416 0 0 0
433 1 17.688375473249135 6.770273746918487 12.334998906059923 0 0 0
424 1 17.964328867697777 9.363830770554415 9.55016466658947 0 0 0
422 1 19.512791910703182 7.818772590901258 10.673022175570066 0 0 0
42 1 0.5144071688382065 10.829920960405275 10.377524868884331 0 0 0
84 1 1.484176690747987 12.14081748784651 12.246678641387279 0 0 0
72 1 3.918307778401653 12.060980583830593 9.671195553797661 0 0 0
207 1 5.305029204046088 10.910405528300736 11.266154263617288 0 0 0
46 1 4.067713372210538 9.233808452673236 12.430742934934257 0 0 0
168 1 6.607770290782665 9.49903687324505 10.015401462887692 0 0 0
210 1 6.790012479038503 12.346336476184051 12.593793877945675 0 0 0
198 1 9.374508156693174 12.563344625744215 9.76840333829619 0 0 0
335 1 10.950868300922332 11.094379380791462 11.074783985718309 0 0 0
296 1 12.326300183495247 9.677754687377524 9.556298332733256 0 0 0
172 1 9.716735347799807 9.554438554408799 12.421505657266088 0 0 0
300 1 15.062882942514575 9.763305853456268 12.1107567986632 0 0 0
326 1 15.140885977347361 12.380257348650689 9.630593559655871 0 0 0
463 1 16.614016612575817 10.927312814721445 10.610126229986413 0 0 0
466 1 17.740641372752677 12.024864811676194 12.284129910658487 0 0 0
428 1 20.63795531224499 9.749055629776425 11.473964177846245 0 0 0
81 1 20.531782057926524 11.994009722960449 9.284528152598456 -1 0 0
74 1 1.3749744304922753 14.901180968043198 9.490783707356346 0 0 0
83 1 2.7484012330420096 13.683844496011394 10.711254480161637 0 0 0
78 1 4.154483511194953 15.148070184026853 12.168768646240245 0 0 0
200 1 6.868940047488014 14.907274427025925 9.505064630002641 0 0 0
209 1 8.12557370049429 13.711709834197112 11.22743144022712 0 0 0
328 1 12.186064403323325 14.987593963060041 9.76347776554827 0 0 0
337 1 13.553169538030897 13.495844853884511 10.85857864963371 0 0 0
332 1 14.775842172280822 14.774928543148258 12.281535987342522 0 0 0
456 1 17.743703699611956 14.863756212699535 9.658161699474807 0 0 0
465 1 19.302248919448108 13.37023121083713 10.840454752359756 0 0 0
460 1 20.687407535698167 14.784321642589733 12.149649279658142 0 0 0
113 1 0.12933270931168633 16.188889849123623 10.892014883132758 0 0 0
104 1 4.311901306195943 17.479355938687963 9.473281715026406 0 0 0
239 1 5.7166037295857475 16.4139211620549 10.656491415888997 0 0 0
242 1 6.814371378386531 17.793703148950932 12.10050100915927 0 0 0
230 1 9.44749219335694 17.64903838202857 9.637403433686842 0 0 0
367 1 10.895883688738346 16.562511577621105 11.001894005099548 0 0 0
370 1 12.396911258523534 17.733262781965287 12.302694764400828 0 0 0
358 1 15.021334046877053 17.522363813654646 9.273816926756133 0 0 0
495 1 16.406366090111455 16.450714816924645 10.841328257373876 0 0 0
498 1 17.72668274486456 17.6348235157295 12.32578047547595 0 0 0
486 1 20.567372225518604 17.781439020488136 9.637317099816093 0 0 0
106 1 1.4747773263254966 20.535463274305766 9.737398282909885 0 0 0
115 1 2.7766165388436437 18.769098560808974 10.949782514239356 0 0 0
110 1 3.991725209662463 20.589889412623453 12.158030504651952 0 0 0
232 1 6.9020279141531375 20.63953422810207 9.496402253434656 0 0 0
241 1 8.386672147182344 19.127428872844852 10.885781667359154 0 0 0
271 1 10.844324601766528 21.748281337329868 10.785305852902018 0 -1 0
360 1 12.24568604365195 20.419614942398166 9.47508587083031 0 0 0
236 1 9.516032020349849 20.422674602541896 12.412189199242754 0 0 0
369 1 13.782355528082089 19.006855611523424 10.806598247490857 0 0 0
364 1 15.090479149541439 20.284990261110348 12.248814207708891 0 0 0
488 1 17.782671045311893 20.426981298239482 9.65387169437544 0 0 0
497 1 19.15096431309086 18.976989285734422 11.014948608092205 0 0 0
492 1 20.183313800480917 20.437032232509132 12.402244433781856 0 0 0
21 1 1.4491784039590234 1.5806782091126994 12.162029114267918 0 0 0
17 1 4.03950516060531 1.4508665034442143 15.010391036434106 0 0 0
142 1 5.216738067880764 2.975808939820348 13.660172892688093 0 0 0
148 1 7.936815196432957 21.69673881805725 13.626877769460119 0 -1 0
143 1 9.377813884682773 1.3640951172406615 14.931662758112399 0 0 0
269 1 10.681910998172455 2.589013918391283 13.605937091063067 0 0 0
270 1 14.939756085552654 1.324600175353207 15.010467384140107 0 0 0
397 1 16.161665370163274 2.739333683873362 13.690179937155781 0 0 0
16 1 21.73859637171114 2.8523175496040256 13.686581215793924 -1 0 0
398 1 20.470659858845703 1.2719944234537182 14.933144238119512 0 0 0
19 1 1.2729146089896646 4.097231437634182 15.126892799303059 0 0 0
53 1 2.3889848914170964 5.709663394500112 13.574062056199939 0 0 0
179 1 8.373654808593647 5.5503528674409415 13.65834426919568 0 0 0
145 1 6.7104143127832625 4.162707319536443 15.024386641318776 0 0 0
272 1 12.120602407568057 3.948592454851038 14.973804031037682 0 0 0
307 1 13.4582237665955 5.682234432234731 13.713110903083358 0 0 0
400 1 17.68938825064169 4.187970003575879 15.250765352855563 0 0 0
435 1 19.26763642313446 5.255506207644411 13.673305756201032 0 0 0
48 1 3.89976799864502 6.790211648644902 15.075265875644932 0 0 0
173 1 5.431138365582998 7.985224793806251 13.762296953315973 0 0 0
306 1 12.190489718625319 7.033939250419369 12.220952313504236 0 0 0
174 1 9.486236351639251 6.962342058176666 15.071853451171764 0 0 0
301 1 10.979304078736538 8.315861902247315 13.853198396262151 0 0 0
304 1 12.14208947250403 9.538415180610341 15.183330762444253 0 0 0
302 1 14.896520700933289 7.029289985342682 15.009331207087197 0 0 0
429 1 16.437063679563536 8.335763261728697 13.396270879330629 0 0 0
47 1 21.643817447613998 8.425733885798751 13.426233789403367 -1 0 0
430 1 20.304135049215162 7.006386760885228 14.89863804793784 0 0 0
50 1 1.4820549582418745 9.641377718916324 14.761792111041958 0 0 0
85 1 3.078531016732404 10.970385838503509 13.625550598839345 0 0 0
80 1 4.093802509815804 12.296854831271897 15.188700120380204 0 0 0
176 1 6.687351441061767 9.305039733958205 15.279985428114898 0 0 0
211 1 8.109621174737994 10.909070979015361 13.774707858724712 0 0 0
206 1 9.265581220491493 12.354491366084913 15.223809752646925 0 0 0
338 1 12.40961778128202 12.261570867242668 12.431543832004577 0 0 0
339 1 13.770611574049239 10.691718620861216 13.812153714477688 0 0 0
334 1 14.988119933865704 11.963898943879176 15.322951660275987 0 0 0
432 1 17.94541709438462 9.576739492896474 14.751590738609709 0 0 0
467 1 19.583903994880178 10.990876503041932 13.273809119210705 0 0 0
462 1 20.80876492091523 12.244757188343755 14.896033793421914 0 0 0
82 1 1.5095584292926751 14.971832817042594 15.096989962903399 0 0 0
205 1 5.364769224219225 13.636577387487515 13.656780816811331 0 0 0
208 1 6.745116129102237 15.190471065471634 14.79223765769487 0 0 0
204 1 9.644947231885679 15.06522924199399 12.320484183099872 0 0 0
333 1 10.786055310094872 13.56074444048718 14.00288327494589 0 0 0
336 1 12.309734613617874 15.109687973776252 15.080354014334368 0 0 0
461 1 16.332856557729805 13.33851833625454 13.640613427714303 0 0 0
464 1 17.820274364152215 14.728071677274283 14.951441956934737 0 0 0
79 1 0.2588192216061813 13.607272853550509 13.633506379594428 0 0 0
116 1 1.3690771259016503 17.47266074695612 12.512538260003721 0 0 0
117 1 2.859658130875485 16.34142451423507 13.839716014673286 0 0 0
112 1 3.911145068683915 17.98570522987229 14.917259390554236 0 0 0
243 1 8.32714433449801 16.585506914213727 13.568977721448537 0 0 0
238 1 9.630368904515493 17.878795379200856 15.028642263664532 0 0 0
366 1 14.8604997674879 17.662734007272842 15.176657053931763 0 0 0
371 1 13.68743938008079 16.291611254992592 13.57652095442419 0 0 0
499 1 19.061499529727342 16.03894011093413 13.618807531625285 0 0 0
494 1 20.293088280500406 17.675059841549263 15.014018292137505 0 0 0
22 1 2.7428527038302506 0.2364309164105194 13.61301047602899 0 0 0
114 1 1.2900700473329385 20.48531759545212 15.053918005797001 0 0 0
111 1 21.659035128172935 19.096726163891578 13.732013441224243 -1 0 0
237 1 5.432114363565845 19.23817234409776 13.631277270799327 0 0 0
240 1 6.669843162636526 20.34270686273035 15.053697933998443 0 0 0
365 1 11.046911737609166 19.254742288155185 13.66661044792516 0 0 0
368 1 12.282389698759815 20.448173866644506 15.001713183369562 0 0 0
275 1 13.557392745999817 21.63950578896199 13.508083081644624 0 -1 0
493 1 16.279586335365803 18.9529180560146 13.851276403584679 0 0 0
496 1 17.58538360635894 20.41436948278319 15.157700760193112 0 0 0
403 1 19.044544718761266 21.782905825038597 13.791975731828227 0 -1 0
29 1 1.4319322919504285 1.2894529741308414 17.763755968385922 0 0 0
28 1 2.7186671717531423 2.6205421964768476 16.534949554543086 0 0 0
152 1 5.347914697696085 21.67178171697459 16.348859649050553 0 -1 0
155 1 6.728700092654432 1.4039973157413161 17.548985004084667 0 0 0
154 1 8.192951649261591 2.8510492047894194 16.31727234691376 0 0 0
282 1 12.11459422519313 1.501698391219809 17.92622629187072 0 0 0
279 1 10.954040519531942 0.14259591206268707 16.224499932575444 0 0 0
281 1 13.595383220194206 2.827139736434628 16.49542689148094 0 0 0
410 1 17.712423439498345 1.4127988702396281 17.67162065460927 0 0 0
407 1 15.987605688514762 21.751115718372972 16.382808242676596 0 -1 0
409 1 19.14175855011565 2.710992589459457 16.389733576165415 0 0 0
23 1 4.2282708011488594 4.128632320091918 17.85375399542209 0 0 0
183 1 5.2790489114893075 5.307190765368082 16.278287437029633 0 0 0
149 1 9.43281936118203 4.425797421428907 17.546183950961932 0 0 0
311 1 10.917752339897376 5.584476244546617 16.2472466805767 0 0 0
276 1 15.002376760079047 4.4239661882919 17.86783437763086 0 0 0
439 1 16.2201850339697 5.646126700271893 16.372174878776118 0 0 0
57 1 0.0109789701111076 5.621784247802846 16.309831991788847 0 0 0
404 1 20.46187085685073 4.086049112757554 17.620947931926946 0 0 0
60 1 1.367845658854182 6.8632035127243265 17.65128963579303 0 0 0
59 1 2.649481947212057 8.323869215338565 16.395560297404842 0 0 0
185 1 8.092178521544017 8.086044313805319 16.60457591122827 0 0 0
186 1 6.574295274128552 6.897515630775481 17.727152267371682 0 0 0
314 1 12.045645674946396 7.069061758181718 17.80332437739217 0 0 0
180 1 9.376377032885223 9.510023591000849 17.849527810817243 0 0 0
313 1 13.70391186243339 8.317004735405582 16.49773590759638 0 0 0
442 1 17.70929442295447 6.975972915324978 17.704323346445623 0 0 0
441 1 18.898120107246587 8.28530637727905 16.243220275863255 0 0 0
92 1 1.3808229796811455 12.253317617063356 17.858311189490085 0 0 0
54 1 3.939926178929362 9.698840034615733 17.89647271337812 0 0 0
215 1 5.430887985913641 10.941886101845128 16.653444971387692 0 0 0
218 1 6.743019604264071 12.374223303640765 17.894960626920643 0 0 0
343 1 10.892282033325184 10.870704568840875 16.597286859530826 0 0 0
346 1 12.223328386733606 12.469368350022883 18.01358020605423 0 0 0
308 1 15.048774871395283 9.78415069457453 17.83296062609572 0 0 0
471 1 16.54858082374975 10.765410929922243 16.45297505753449 0 0 0
474 1 18.032175125363256 12.195253162432087 17.475211337577466 0 0 0
89 1 0.23019121594404268 10.817913844996593 16.38013417345463 0 0 0
436 1 20.388940878480128 9.524464152330431 17.679064362115977 0 0 0
91 1 2.749436014824807 13.458332028038841 16.523284985969205 0 0 0
86 1 4.076120726779749 15.05108176531932 17.80428791648469 0 0 0
217 1 7.966774626846262 13.936681173210458 16.54412209072489 0 0 0
212 1 9.552090209465614 15.225521731071822 17.718574597582016 0 0 0
340 1 15.19364144371944 14.98479307596822 17.858181084265812 0 0 0
345 1 13.661416470547842 13.650595400860027 16.50977878706429 0 0 0
473 1 19.319995247734543 13.651069450241911 16.413014278487278 0 0 0
468 1 20.520871993834774 15.12552487743715 17.95508879258622 0 0 0
124 1 1.2607917766408743 17.805070020826264 17.7399403246275 0 0 0
247 1 5.390137914649359 16.644201201936042 16.34633291282335 0 0 0
250 1 6.675811175453404 17.760628340663715 17.758437467373707 0 0 0
375 1 10.97101669734404 16.438193239755286 16.295321238131454 0 0 0
378 1 12.31561736921149 17.686504819518703 18.076300190146764 0 0 0
503 1 16.456823734326186 16.369886903296543 16.326470647522232 0 0 0
506 1 17.738958712112904 17.78422908890749 17.822986601858137 0 0 0
121 1 21.71904800911577 16.292164929296344 16.324510592162728 -1 0 0
123 1 2.5608744613135954 18.998514561893384 16.279724648122095 0 0 0
26 1 21.77468557310454 0.10838416929790284 16.37507961634267 -1 0 0
118 1 3.917332860936787 20.25693240699627 17.643677220884932 0 0 0
249 1 8.045654284584463 18.898767553766316 16.439060892623903 0 0 0
244 1 9.576506158800337 20.502873880518724 17.939983605193852 0 0 0
377 1 13.454159874405171 19.123718590598045 16.53120627777399 0 0 0
372 1 14.662012622696976 20.47756188465638 17.89714654223052 0 0 0
505 1 19.048848524709847 19.090982737549016 16.574882476060488 0 0 0
500 1 20.444248205083817 20.637588691406403 17.754026255097568 0 0 0
5 1 2.8105648377096437 2.686366699784997 21.78461677564607 0 0 -1
24 1 0.04365585197442615 2.6813460759272187 19.005585251624836 0 0 0
25 1 4.060019899318377 1.284214341012539 20.489528066477977 0 0 0
150 1 5.475525125758438 2.646702762671204 19.10325682759323 0 0 0