LAMMPS (10 Sep 2025)
OMP_NUM_THREADS environment is not set. Defaulting to 1 thread.
  using 1 OpenMP thread(s) per MPI task
Loaded 1 plugins from C:\Users\lmike\AppData\Local\LAMMPS 64-bit 10Sep2025 with GUI\plugins
# LAMMPS input generated from LammpsInputFile with pymatgen v2025.10.7

# STYLES
units metal
atom_style atomic

# SET UP CALCULATION
read_data starting_config.dat
Reading data file ...
  orthogonal box = (0 0 0) to (21.800341 21.800341 21.800341)
  1 by 1 by 1 MPI processor grid
  reading atoms ...
  507 atoms
  read_data CPU = 0.004 seconds
pair_style sw
pair_coeff * * Si.sw Si
Reading sw potential file Si.sw with DATE: 2007-06-11
velocity all create 1200 7942822

# CALCULATION PARAMETERS
fix f1 all nvt temp 1200.0 1200.0 $(100.0*dt)
fix f1 all nvt temp 1200.0 1200.0 0.10000000000000000555
thermo 100000
thermo_style custom step temp press spcpu cpuremain

# RUN CALC AND WRITE OUTPUTS
dump d1 all custom 100 state_dump id type x y z vx vy vz
run 10000000
Neighbor list info ...
  update: every = 1 steps, delay = 0 steps, check = yes
  max neighbors/atom: 2000, page size: 100000
  master list distance cutoff = 5.77118
  ghost atom cutoff = 5.77118
  binsize = 2.88559, bins = 8 8 8
  1 neighbor lists, perpetual/occasional/extra = 1 0 0
  (1) pair sw, perpetual
      attributes: full, newton on
      pair build: full/bin/atomonly
      stencil: full/bin/3d
      bin: standard
Per MPI rank memory allocation (min/avg/max) = 3.117 | 3.117 | 3.117 Mbytes
   Step          Temp          Press          S/CPU         CPULeft    
         0   1200          -2240.6615      0              0            
    100000   1119.1039     -9987.779       377.0209       26258.491    
    200000   1188.1297     -11402.76       404.19263      25119.559    
    300000   1274.0392     -10758.17       510.20838      22912.772    
    400000   1208.0743     -11940.986      515.88098      21659.654    
    500000   1172.002      -8257.3883      532.35825      20716.251    
    600000   1254.9858     -7292.477       526.51943      20057.337    
    700000   1230.9779     -8351.4888      522.54718      19551.6      
    800000   1171.7102     -8407.6559      525.11278      19113.703    
    900000   1236.9732     -6500.6746      521.13317      18745.501    
   1000000   1170.9754     -7956.5875      540.49094      18350.708    
   1100000   1188.391      -9303.9903      521.91435      18047.338    
   1200000   1227.5747     -8697.12        514.51446      17782.805    
   1300000   1211.7033     -8019.3503      521.65063      17511.274    
   1400000   1125.7704     -9917.4531      522.15294      17250.014    
   1500000   1222.5306     -9188.9203      532.24098      16977.485    
   1600000   1209.4552     -7387.7927      531.75098      16716.444    
   1700000   1158.3852     -8646.5802      531.7525       16463.988    
   1800000   1198.0594     -8592.691       518.46781      16240.638    
   1900000   1148.3048     -8326.519       522.47064      16014.196    
   2000000   1245.0919     -7892.3081      527.91888      15783.358    
   2100000   1181.7902     -7708.5825      514.20661      15575.466    
   2200000   1165.0054     -9238.8337      522.30484      15358.104    
   2300000   1097.9016     -9570.9963      534.92369      15127.873    
   2400000   1194.5061     -9008.8525      531.55795      14904.999    
   2500000   1170.88       -8629.3257      547.79856      14668.171    
   2600000   1290.505      -7997.4853      527.90257      14455.101    
   2700000   1259.7374     -9268.4989      527.33084      14244.338    
   2800000   1169.5625     -7913.5356      526.59752      14035.762    
   2900000   1105.429      -10165.224      527.38416      13827.782    
   3000000   1236.2603     -8938.1531      525.09721      13622.952    
   3100000   1248.2788     -8600.0203      535.07422      13411.147    
   3200000   1285.3189     -7866.63        527.81987      13206.358    
   3300000   1252.9853     -7052.7076      524.98073      13004.578    
   3400000   1340.8118     -8245.2848      525.10264      12803.376    
   3500000   1127.8221     -8451.4248      519.15275      12606.843    
   3600000   1217.9095     -9723.6457      534.28148      12400.831    
   3700000   1222.7061     -9859.0544      526.92091      12200.289    
   3800000   1170.5339     -9487.204       518.5811       12005.294    
   3900000   1242.955      -7768.1488      515.30542      11812.326    
   4000000   1177.2011     -8109.6483      536.14684      11607.988    
   4100000   1228.11       -8307.2598      528.49944      11408.404    
   4200000   1172.6008     -8939.0061      521.72123      11212.708    
   4300000   1194.5937     -8482.962       531.09968      11012.712    
   4400000   1206.5144     -8789.5407      533.14468      10812.33     
   4500000   1245.078      -7569.3646      532.23128      10612.91     
   4600000   1224.5325     -9749.0071      522.23314      10418.215    
   4700000   1165.1753     -9044.8753      527.26147      10221.597    
   4800000   1147.6871     -9241.7322      531.43014      10023.657    
   4900000   1106.537      -9514.0265      523.21617      9829.1904    
   5000000   1163.262      -9081.6511      517.01683      9637.1492    
   5100000   1236.6834     -8229.9302      533.33281      9439.3691    
   5200000   1155.9475     -8409.9481      541.01313      9239.5272    
   5300000   1191.2505     -7537.5672      517.50275      9047.6982    
   5400000   1250.6601     -8049.024       530.237        8851.8638    
   5500000   1205.7961     -7800.9598      525.2725       8657.7511    
   5600000   1212.0766     -9303.2282      537.23538      8460.441     
   5700000   1120.7143     -9057.8023      519.35062      8268.3584    
   5800000   1262.038      -8337.1543      529.98199      8073.4629    
   5900000   1180.1125     -8184.0977      529.8208       7878.8177    
   6000000   1172.9307     -7747.0903      527.35936      7684.9566    
   6100000   1173.5035     -8380.0931      529.8761       7490.6585    
   6200000   1181.0236     -9085.1977      528.82305      7296.7706    
   6300000   1205.1017     -8486.8767      529.47544      7102.8979    
   6400000   1181.3578     -8935.4286      521.1521       6910.8784    
   6500000   1175.3656     -9518.0268      533.62763      6716.4476    
   6600000   1263.2839     -7932.8031      527.12331      6523.4211    
   6700000   1173.8254     -8356.706       514.49077      6332.7879    
   6800000   1182.3104     -8714.3394      527.07671      6139.8608    
   6900000   1231.5669     -8171.6466      535.00534      5945.7633    
   7000000   1196.6244     -8120.254       537.73476      5751.4644    
   7100000   1292.3763     -7081.5594      528.99048      5558.6558    
   7200000   1191.7232     -9549.1591      539.89635      5364.467     
   7300000   1181.9854     -8320.0804      498.45401      5176.2195    
   7400000   1204.8835     -7763.3969      528.90233      4983.5798    
   7500000   1185.1456     -9369.7194      518.77821      4792.2651    
   7600000   1247.57       -9385.2423      538.70728      4598.6605    
   7700000   1163.0043     -9799.7619      529.54212      4406.2227    
   7800000   1232.0526     -8021.9917      527.18186      4214.1156    
   7900000   1208.7889     -8739.0945      522.32518      4022.5385    
   8000000   1145.7752     -8311.148       541.58737      3829.2623    
   8100000   1217.7819     -9206.8762      511.91808      3638.7095    
   8200000   1227.613      -8445.5703      532.52459      3446.3805    
   8300000   1243.6561     -8078.8022      516.50829      3255.3537    
   8400000   1212.9314     -8353.5539      545.87256      3062.2816    
   8500000   1108.438      -10614.515      518.60241      2871.1419    
   8600000   1289.3252     -8346.7737      538.73288      2678.7901    
   8700000   1251.7629     -8267.407       514.97982      2487.8724    
   8800000   1171.6684     -8854.2632      521.09824      2296.5695    
   8900000   1217.9925     -9891.3808      541.36421      2104.3653    
   9000000   1267.1684     -8866.8784      540.91104      1912.3446    
   9100000   1225.3996     -8931.9108      533.07384      1720.7499    
   9200000   1141.0292     -8819.9747      558.00139      1528.5134    
   9300000   1241.1034     -8168.1054      613.87198      1335.3294    
   9400000   1212.6772     -8492.7087      713.6766       1141.3356    
   9500000   1153.6066     -8924.5078      758.41375      948.04095    
   9600000   1213.6127     -8870.0996      759.04457      756.02178    
   9700000   1247.952      -7841.8345      761.18591      565.23391    
   9800000   1178.6482     -9603.622       772.28356      375.62005    
   9900000   1211.4172     -9262.5124      767.1154       187.22971    
  10000000   1168.3095     -9107.4578      747.85322      0            
Loop time of 18669.5 on 1 procs for 10000000 steps with 507 atoms

Performance: 46.279 ns/day, 0.519 hours/ns, 535.634 timesteps/s, 271.567 katom-step/s
99.5% CPU use with 1 MPI tasks x 1 OpenMP threads

MPI task timing breakdown:
Section |  min time  |  avg time  |  max time  |%varavg| %total
---------------------------------------------------------------
Pair    | 18362      | 18362      | 18362      |   0.0 | 98.35
Neigh   | 24.442     | 24.442     | 24.442     |   0.0 |  0.13
Comm    | 45.709     | 45.709     | 45.709     |   0.0 |  0.24
Output  | 151.85     | 151.85     | 151.85     |   0.0 |  0.81
Modify  | 67.389     | 67.389     | 67.389     |   0.0 |  0.36
Other   |            | 17.73      |            |       |  0.09

Nlocal:            507 ave         507 max         507 min
Histogram: 1 0 0 0 0 0 0 0 0 0
Nghost:           1438 ave        1438 max        1438 min
Histogram: 1 0 0 0 0 0 0 0 0 0
Neighs:              0 ave           0 max           0 min
Histogram: 1 0 0 0 0 0 0 0 0 0
FullNghs:        17862 ave       17862 max       17862 min
Histogram: 1 0 0 0 0 0 0 0 0 0

Total # of neighbors = 17862
Ave neighs/atom = 35.230769
Neighbor list builds = 31524
Dangerous builds = 0
write_data FINAL_STRUCTURE
System init for write_data ...
Total wall time: 5:11:09
