Generated by pymatgen.io.lammps.data.LammpsData

507  atoms

  1  atom types

0.000000 21.800341  xlo xhi
0.000000 21.800341  ylo yhi
0.000000 21.800341  zlo zhi

Masses

1  28.085

Atoms

1    1   4.087564   4.087564   1.362521
2    1   4.087564   1.362521   4.087564
3    1   0.000000   0.000000   0.000000
4    1   1.362521   4.087564   4.087564
5    1   2.725043   2.725043   0.000000
6    1   1.362521   1.362521   1.362521
7    1   2.725043   0.000000   2.725043
8    1   4.087564   4.087564   6.812607
9    1   4.087564   1.362521   9.537649
10   1   0.000000   0.000000   5.450085
11   1   1.362521   4.087564   9.537649
12   1   2.725043   2.725043   5.450085
13   1   1.362521   1.362521   6.812607
14   1   2.725043   0.000000   8.175128
15   1   4.087564   4.087564  12.262692
16   1   0.000000   2.725043  13.625213
17   1   4.087564   1.362521  14.987735
18   1   0.000000   0.000000  10.900171
19   1   1.362521   4.087564  14.987735
20   1   2.725043   2.725043  10.900171
21   1   1.362521   1.362521  12.262692
22   1   2.725043   0.000000  13.625213
23   1   4.087564   4.087564  17.712777
24   1   0.000000   2.725043  19.075299
25   1   4.087564   1.362521  20.437820
26   1   0.000000   0.000000  16.350256
27   1   1.362521   4.087564  20.437820
28   1   2.725043   2.725043  16.350256
29   1   1.362521   1.362521  17.712777
30   1   2.725043   0.000000  19.075299
31   1   4.087564   9.537649   1.362521
32   1   4.087564   6.812607   4.087564
33   1   0.000000   5.450085   0.000000
34   1   1.362521   9.537649   4.087564
35   1   2.725043   8.175128   0.000000
36   1   1.362521   6.812607   1.362521
37   1   2.725043   5.450085   2.725043
38   1   4.087564   9.537649   6.812607
39   1   0.000000   8.175128   8.175128
40   1   4.087564   6.812607   9.537649
41   1   0.000000   5.450085   5.450085
42   1   1.362521   9.537649   9.537649
43   1   2.725043   8.175128   5.450085
44   1   1.362521   6.812607   6.812607
45   1   2.725043   5.450085   8.175128
46   1   4.087564   9.537649  12.262692
47   1   0.000000   8.175128  13.625213
48   1   4.087564   6.812607  14.987735
49   1   0.000000   5.450085  10.900171
50   1   1.362521   9.537649  14.987735
51   1   2.725043   8.175128  10.900171
52   1   1.362521   6.812607  12.262692
53   1   2.725043   5.450085  13.625213
54   1   4.087564   9.537649  17.712777
55   1   0.000000   8.175128  19.075299
56   1   4.087564   6.812607  20.437820
57   1   0.000000   5.450085  16.350256
58   1   1.362521   9.537649  20.437820
59   1   2.725043   8.175128  16.350256
60   1   1.362521   6.812607  17.712777
61   1   2.725043   5.450085  19.075299
62   1   4.087564  14.987735   1.362521
63   1   0.000000  13.625213   2.725043
64   1   4.087564  12.262692   4.087564
65   1   0.000000  10.900171   0.000000
66   1   1.362521  14.987735   4.087564
67   1   2.725043  13.625213   0.000000
68   1   1.362521  12.262692   1.362521
69   1   2.725043  10.900171   2.725043
70   1   4.087564  14.987735   6.812607
71   1   0.000000  13.625213   8.175128
72   1   4.087564  12.262692   9.537649
73   1   0.000000  10.900171   5.450085
74   1   1.362521  14.987735   9.537649
75   1   2.725043  13.625213   5.450085
76   1   1.362521  12.262692   6.812607
77   1   2.725043  10.900171   8.175128
78   1   4.087564  14.987735  12.262692
79   1   0.000000  13.625213  13.625213
80   1   4.087564  12.262692  14.987735
81   1   0.000000  10.900171  10.900171
82   1   1.362521  14.987735  14.987735
83   1   2.725043  13.625213  10.900171
84   1   1.362521  12.262692  12.262692
85   1   2.725043  10.900171  13.625213
86   1   4.087564  14.987735  17.712777
87   1   0.000000  13.625213  19.075299
88   1   4.087564  12.262692  20.437820
89   1   0.000000  10.900171  16.350256
90   1   1.362521  14.987735  20.437820
91   1   2.725043  13.625213  16.350256
92   1   1.362521  12.262692  17.712777
93   1   2.725043  10.900171  19.075299
94   1   4.087564  20.437820   1.362521
95   1   0.000000  19.075299   2.725043
96   1   4.087564  17.712777   4.087564
97   1   0.000000  16.350256   0.000000
98   1   1.362521  20.437820   4.087564
99   1   2.725043  19.075299   0.000000
100  1   1.362521  17.712777   1.362521
101  1   2.725043  16.350256   2.725043
102  1   4.087564  20.437820   6.812607
103  1   0.000000  19.075299   8.175128
104  1   4.087564  17.712777   9.537649
105  1   0.000000  16.350256   5.450085
106  1   1.362521  20.437820   9.537649
107  1   2.725043  19.075299   5.450085
108  1   1.362521  17.712777   6.812607
109  1   2.725043  16.350256   8.175128
110  1   4.087564  20.437820  12.262692
111  1   0.000000  19.075299  13.625213
112  1   4.087564  17.712777  14.987735
113  1   0.000000  16.350256  10.900171
114  1   1.362521  20.437820  14.987735
115  1   2.725043  19.075299  10.900171
116  1   1.362521  17.712777  12.262692
117  1   2.725043  16.350256  13.625213
118  1   4.087564  20.437820  17.712777
119  1   0.000000  19.075299  19.075299
120  1   4.087564  17.712777  20.437820
121  1   0.000000  16.350256  16.350256
122  1   1.362521  20.437820  20.437820
123  1   2.725043  19.075299  16.350256
124  1   1.362521  17.712777  17.712777
125  1   2.725043  16.350256  19.075299
126  1   9.537649   4.087564   1.362521
127  1   9.537649   1.362521   4.087564
128  1   5.450085   0.000000   0.000000
129  1   6.812607   4.087564   4.087564
130  1   8.175128   2.725043   0.000000
131  1   6.812607   1.362521   1.362521
132  1   8.175128   0.000000   2.725043
133  1   9.537649   4.087564   6.812607
134  1   5.450085   2.725043   8.175128
135  1   9.537649   1.362521   9.537649
136  1   5.450085   0.000000   5.450085
137  1   6.812607   4.087564   9.537649
138  1   8.175128   2.725043   5.450085
139  1   6.812607   1.362521   6.812607
140  1   8.175128   0.000000   8.175128
141  1   9.537649   4.087564  12.262692
142  1   5.450085   2.725043  13.625213
143  1   9.537649   1.362521  14.987735
144  1   5.450085   0.000000  10.900171
145  1   6.812607   4.087564  14.987735
146  1   8.175128   2.725043  10.900171
147  1   6.812607   1.362521  12.262692
148  1   8.175128   0.000000  13.625213
149  1   9.537649   4.087564  17.712777
150  1   5.450085   2.725043  19.075299
151  1   9.537649   1.362521  20.437820
152  1   5.450085   0.000000  16.350256
153  1   6.812607   4.087564  20.437820
154  1   8.175128   2.725043  16.350256
155  1   6.812607   1.362521  17.712777
156  1   8.175128   0.000000  19.075299
157  1   9.537649   9.537649   1.362521
158  1   9.537649   6.812607   4.087564
159  1   5.450085   5.450085   0.000000
160  1   6.812607   9.537649   4.087564
161  1   8.175128   8.175128   0.000000
162  1   6.812607   6.812607   1.362521
163  1   8.175128   5.450085   2.725043
164  1   9.537649   9.537649   6.812607
165  1   5.450085   8.175128   8.175128
166  1   9.537649   6.812607   9.537649
167  1   5.450085   5.450085   5.450085
168  1   6.812607   9.537649   9.537649
169  1   8.175128   8.175128   5.450085
170  1   6.812607   6.812607   6.812607
171  1   8.175128   5.450085   8.175128
172  1   9.537649   9.537649  12.262692
173  1   5.450085   8.175128  13.625213
174  1   9.537649   6.812607  14.987735
175  1   5.450085   5.450085  10.900171
176  1   6.812607   9.537649  14.987735
177  1   8.175128   8.175128  10.900171
178  1   6.812607   6.812607  12.262692
179  1   8.175128   5.450085  13.625213
180  1   9.537649   9.537649  17.712777
181  1   5.450085   8.175128  19.075299
182  1   9.537649   6.812607  20.437820
183  1   5.450085   5.450085  16.350256
184  1   6.812607   9.537649  20.437820
185  1   8.175128   8.175128  16.350256
186  1   6.812607   6.812607  17.712777
187  1   8.175128   5.450085  19.075299
188  1   9.537649  14.987735   1.362521
189  1   5.450085  13.625213   2.725043
190  1   9.537649  12.262692   4.087564
191  1   5.450085  10.900171   0.000000
192  1   6.812607  14.987735   4.087564
193  1   8.175128  13.625213   0.000000
194  1   6.812607  12.262692   1.362521
195  1   8.175128  10.900171   2.725043
196  1   9.537649  14.987735   6.812607
197  1   5.450085  13.625213   8.175128
198  1   9.537649  12.262692   9.537649
199  1   5.450085  10.900171   5.450085
200  1   6.812607  14.987735   9.537649
201  1   8.175128  13.625213   5.450085
202  1   6.812607  12.262692   6.812607
203  1   8.175128  10.900171   8.175128
204  1   9.537649  14.987735  12.262692
205  1   5.450085  13.625213  13.625213
206  1   9.537649  12.262692  14.987735
207  1   5.450085  10.900171  10.900171
208  1   6.812607  14.987735  14.987735
209  1   8.175128  13.625213  10.900171
210  1   6.812607  12.262692  12.262692
211  1   8.175128  10.900171  13.625213
212  1   9.537649  14.987735  17.712777
213  1   5.450085  13.625213  19.075299
214  1   9.537649  12.262692  20.437820
215  1   5.450085  10.900171  16.350256
216  1   6.812607  14.987735  20.437820
217  1   8.175128  13.625213  16.350256
218  1   6.812607  12.262692  17.712777
219  1   8.175128  10.900171  19.075299
220  1   9.537649  20.437820   1.362521
221  1   5.450085  19.075299   2.725043
222  1   9.537649  17.712777   4.087564
223  1   5.450085  16.350256   0.000000
224  1   6.812607  20.437820   4.087564
225  1   8.175128  19.075299   0.000000
226  1   6.812607  17.712777   1.362521
227  1   8.175128  16.350256   2.725043
228  1   9.537649  20.437820   6.812607
229  1   5.450085  19.075299   8.175128
230  1   9.537649  17.712777   9.537649
231  1   5.450085  16.350256   5.450085
232  1   6.812607  20.437820   9.537649
233  1   8.175128  19.075299   5.450085
234  1   6.812607  17.712777   6.812607
235  1   8.175128  16.350256   8.175128
236  1   9.537649  20.437820  12.262692
237  1   5.450085  19.075299  13.625213
238  1   9.537649  17.712777  14.987735
239  1   5.450085  16.350256  10.900171
240  1   6.812607  20.437820  14.987735
241  1   8.175128  19.075299  10.900171
242  1   6.812607  17.712777  12.262692
243  1   8.175128  16.350256  13.625213
244  1   9.537649  20.437820  17.712777
245  1   5.450085  19.075299  19.075299
246  1   9.537649  17.712777  20.437820
247  1   5.450085  16.350256  16.350256
248  1   6.812607  20.437820  20.437820
249  1   8.175128  19.075299  16.350256
250  1   6.812607  17.712777  17.712777
251  1   8.175128  16.350256  19.075299
252  1  14.987735   4.087564   1.362521
253  1  10.900171   2.725043   2.725043
254  1  14.987735   1.362521   4.087564
255  1  10.900171   0.000000   0.000000
256  1  12.262692   4.087564   4.087564
257  1  13.625213   2.725043   0.000000
258  1  12.262692   1.362521   1.362521
259  1  13.625213   0.000000   2.725043
260  1  14.987735   4.087564   6.812607
261  1  10.900171   2.725043   8.175128
262  1  14.987735   1.362521   9.537649
263  1  10.900171   0.000000   5.450085
264  1  12.262692   4.087564   9.537649
265  1  13.625213   2.725043   5.450085
266  1  12.262692   1.362521   6.812607
267  1  13.625213   0.000000   8.175128
268  1  14.987735   4.087564  12.262692
269  1  10.900171   2.725043  13.625213
270  1  14.987735   1.362521  14.987735
271  1  10.900171   0.000000  10.900171
272  1  12.262692   4.087564  14.987735
273  1  13.625213   2.725043  10.900171
274  1  12.262692   1.362521  12.262692
275  1  13.625213   0.000000  13.625213
276  1  14.987735   4.087564  17.712777
277  1  10.900171   2.725043  19.075299
278  1  14.987735   1.362521  20.437820
279  1  10.900171   0.000000  16.350256
280  1  12.262692   4.087564  20.437820
281  1  13.625213   2.725043  16.350256
282  1  12.262692   1.362521  17.712777
283  1  13.625213   0.000000  19.075299
284  1  14.987735   9.537649   1.362521
285  1  10.900171   8.175128   2.725043
286  1  14.987735   6.812607   4.087564
287  1  10.900171   5.450085   0.000000
288  1  12.262692   9.537649   4.087564
289  1  13.625213   8.175128   0.000000
290  1  12.262692   6.812607   1.362521
291  1  13.625213   5.450085   2.725043
292  1  14.987735   9.537649   6.812607
293  1  10.900171   8.175128   8.175128
294  1  14.987735   6.812607   9.537649
295  1  10.900171   5.450085   5.450085
296  1  12.262692   9.537649   9.537649
297  1  13.625213   8.175128   5.450085
298  1  12.262692   6.812607   6.812607
299  1  13.625213   5.450085   8.175128
300  1  14.987735   9.537649  12.262692
301  1  10.900171   8.175128  13.625213
302  1  14.987735   6.812607  14.987735
303  1  10.900171   5.450085  10.900171
304  1  12.262692   9.537649  14.987735
305  1  13.625213   8.175128  10.900171
306  1  12.262692   6.812607  12.262692
307  1  13.625213   5.450085  13.625213
308  1  14.987735   9.537649  17.712777
309  1  10.900171   8.175128  19.075299
310  1  14.987735   6.812607  20.437820
311  1  10.900171   5.450085  16.350256
312  1  12.262692   9.537649  20.437820
313  1  13.625213   8.175128  16.350256
314  1  12.262692   6.812607  17.712777
315  1  13.625213   5.450085  19.075299
316  1  14.987735  14.987735   1.362521
317  1  10.900171  13.625213   2.725043
318  1  14.987735  12.262692   4.087564
319  1  10.900171  10.900171   0.000000
320  1  12.262692  14.987735   4.087564
321  1  13.625213  13.625213   0.000000
322  1  12.262692  12.262692   1.362521
323  1  13.625213  10.900171   2.725043
324  1  14.987735  14.987735   6.812607
325  1  10.900171  13.625213   8.175128
326  1  14.987735  12.262692   9.537649
327  1  10.900171  10.900171   5.450085
328  1  12.262692  14.987735   9.537649
329  1  13.625213  13.625213   5.450085
330  1  12.262692  12.262692   6.812607
331  1  13.625213  10.900171   8.175128
332  1  14.987735  14.987735  12.262692
333  1  10.900171  13.625213  13.625213
334  1  14.987735  12.262692  14.987735
335  1  10.900171  10.900171  10.900171
336  1  12.262692  14.987735  14.987735
337  1  13.625213  13.625213  10.900171
338  1  12.262692  12.262692  12.262692
339  1  13.625213  10.900171  13.625213
340  1  14.987735  14.987735  17.712777
341  1  10.900171  13.625213  19.075299
342  1  14.987735  12.262692  20.437820
343  1  10.900171  10.900171  16.350256
344  1  12.262692  14.987735  20.437820
345  1  13.625213  13.625213  16.350256
346  1  12.262692  12.262692  17.712777
347  1  13.625213  10.900171  19.075299
348  1  14.987735  20.437820   1.362521
349  1  10.900171  19.075299   2.725043
350  1  14.987735  17.712777   4.087564
351  1  10.900171  16.350256   0.000000
352  1  12.262692  20.437820   4.087564
353  1  13.625213  19.075299   0.000000
354  1  12.262692  17.712777   1.362521
355  1  13.625213  16.350256   2.725043
356  1  14.987735  20.437820   6.812607
357  1  10.900171  19.075299   8.175128
358  1  14.987735  17.712777   9.537649
359  1  10.900171  16.350256   5.450085
360  1  12.262692  20.437820   9.537649
361  1  13.625213  19.075299   5.450085
362  1  12.262692  17.712777   6.812607
363  1  13.625213  16.350256   8.175128
364  1  14.987735  20.437820  12.262692
365  1  10.900171  19.075299  13.625213
366  1  14.987735  17.712777  14.987735
367  1  10.900171  16.350256  10.900171
368  1  12.262692  20.437820  14.987735
369  1  13.625213  19.075299  10.900171
370  1  12.262692  17.712777  12.262692
371  1  13.625213  16.350256  13.625213
372  1  14.987735  20.437820  17.712777
373  1  10.900171  19.075299  19.075299
374  1  14.987735  17.712777  20.437820
375  1  10.900171  16.350256  16.350256
376  1  12.262692  20.437820  20.437820
377  1  13.625213  19.075299  16.350256
378  1  12.262692  17.712777  17.712777
379  1  13.625213  16.350256  19.075299
380  1  20.437820   4.087564   1.362521
381  1  16.350256   2.725043   2.725043
382  1  20.437820   1.362521   4.087564
383  1  16.350256   0.000000   0.000000
384  1  17.712777   4.087564   4.087564
385  1  19.075299   2.725043   0.000000
386  1  17.712777   1.362521   1.362521
387  1  19.075299   0.000000   2.725043
388  1  20.437820   4.087564   6.812607
389  1  16.350256   2.725043   8.175128
390  1  20.437820   1.362521   9.537649
391  1  16.350256   0.000000   5.450085
392  1  17.712777   4.087564   9.537649
393  1  19.075299   2.725043   5.450085
394  1  17.712777   1.362521   6.812607
395  1  19.075299   0.000000   8.175128
396  1  20.437820   4.087564  12.262692
397  1  16.350256   2.725043  13.625213
398  1  20.437820   1.362521  14.987735
399  1  16.350256   0.000000  10.900171
400  1  17.712777   4.087564  14.987735
401  1  19.075299   2.725043  10.900171
402  1  17.712777   1.362521  12.262692
403  1  19.075299   0.000000  13.625213
404  1  20.437820   4.087564  17.712777
405  1  16.350256   2.725043  19.075299
406  1  20.437820   1.362521  20.437820
407  1  16.350256   0.000000  16.350256
408  1  17.712777   4.087564  20.437820
409  1  19.075299   2.725043  16.350256
410  1  17.712777   1.362521  17.712777
411  1  19.075299   0.000000  19.075299
412  1  20.437820   9.537649   1.362521
413  1  16.350256   8.175128   2.725043
414  1  20.437820   6.812607   4.087564
415  1  16.350256   5.450085   0.000000
416  1  17.712777   9.537649   4.087564
417  1  19.075299   8.175128   0.000000
418  1  17.712777   6.812607   1.362521
419  1  19.075299   5.450085   2.725043
420  1  20.437820   9.537649   6.812607
421  1  16.350256   8.175128   8.175128
422  1  20.437820   6.812607   9.537649
423  1  16.350256   5.450085   5.450085
424  1  17.712777   9.537649   9.537649
425  1  19.075299   8.175128   5.450085
426  1  17.712777   6.812607   6.812607
427  1  19.075299   5.450085   8.175128
428  1  20.437820   9.537649  12.262692
429  1  16.350256   8.175128  13.625213
430  1  20.437820   6.812607  14.987735
431  1  16.350256   5.450085  10.900171
432  1  17.712777   9.537649  14.987735
433  1  19.075299   8.175128  10.900171
434  1  17.712777   6.812607  12.262692
435  1  19.075299   5.450085  13.625213
436  1  20.437820   9.537649  17.712777
437  1  16.350256   8.175128  19.075299
438  1  20.437820   6.812607  20.437820
439  1  16.350256   5.450085  16.350256
440  1  17.712777   9.537649  20.437820
441  1  19.075299   8.175128  16.350256
442  1  17.712777   6.812607  17.712777
443  1  19.075299   5.450085  19.075299
444  1  20.437820  14.987735   1.362521
445  1  16.350256  13.625213   2.725043
446  1  20.437820  12.262692   4.087564
447  1  16.350256  10.900171   0.000000
448  1  17.712777  14.987735   4.087564
449  1  19.075299  13.625213   0.000000
450  1  17.712777  12.262692   1.362521
451  1  19.075299  10.900171   2.725043
452  1  20.437820  14.987735   6.812607
453  1  16.350256  13.625213   8.175128
454  1  20.437820  12.262692   9.537649
455  1  16.350256  10.900171   5.450085
456  1  17.712777  14.987735   9.537649
457  1  19.075299  13.625213   5.450085
458  1  17.712777  12.262692   6.812607
459  1  19.075299  10.900171   8.175128
460  1  20.437820  14.987735  12.262692
461  1  16.350256  13.625213  13.625213
462  1  20.437820  12.262692  14.987735
463  1  16.350256  10.900171  10.900171
464  1  17.712777  14.987735  14.987735
465  1  19.075299  13.625213  10.900171
466  1  17.712777  12.262692  12.262692
467  1  19.075299  10.900171  13.625213
468  1  20.437820  14.987735  17.712777
469  1  16.350256  13.625213  19.075299
470  1  20.437820  12.262692  20.437820
471  1  16.350256  10.900171  16.350256
472  1  17.712777  14.987735  20.437820
473  1  19.075299  13.625213  16.350256
474  1  17.712777  12.262692  17.712777
475  1  19.075299  10.900171  19.075299
476  1  20.437820  20.437820   1.362521
477  1  16.350256  19.075299   2.725043
478  1  20.437820  17.712777   4.087564
479  1  16.350256  16.350256   0.000000
480  1  17.712777  20.437820   4.087564
481  1  19.075299  19.075299   0.000000
482  1  17.712777  17.712777   1.362521
483  1  19.075299  16.350256   2.725043
484  1  20.437820  20.437820   6.812607
485  1  16.350256  19.075299   8.175128
486  1  20.437820  17.712777   9.537649
487  1  16.350256  16.350256   5.450085
488  1  17.712777  20.437820   9.537649
489  1  19.075299  19.075299   5.450085
490  1  17.712777  17.712777   6.812607
491  1  19.075299  16.350256   8.175128
492  1  20.437820  20.437820  12.262692
493  1  16.350256  19.075299  13.625213
494  1  20.437820  17.712777  14.987735
495  1  16.350256  16.350256  10.900171
496  1  17.712777  20.437820  14.987735
497  1  19.075299  19.075299  10.900171
498  1  17.712777  17.712777  12.262692
499  1  19.075299  16.350256  13.625213
500  1  20.437820  20.437820  17.712777
501  1  16.350256  19.075299  19.075299
502  1  20.437820  17.712777  20.437820
503  1  16.350256  16.350256  16.350256
504  1  17.712777  20.437820  20.437820
505  1  19.075299  19.075299  16.350256
506  1  17.712777  17.712777  17.712777
507  1  19.075299  16.350256  19.075299

