LAMMPS data file via write_data, version 10 Sep 2025, timestep = 10000000, units = metal

522 atoms
1 atom types

0 21.800341 xlo xhi
0 21.800341 ylo yhi
0 21.800341 zlo zhi

Masses

1 28.085

Atoms # atomic

208 1 0.6992464220839173 0.9174167345388207 0.6144526712317919 1 1 1
11 1 4.777664288478393 2.5690831669742598 1.7046109408555543 0 0 0
486 1 3.4354601777338902 1.2580122764016857 3.050487030566197 1 1 0
239 1 6.00424347312317 0.9692656642947851 0.13070079179777494 0 1 0
2 1 7.6749304925415744 1.7048366550554868 1.9182319483963894 0 0 0
141 1 9.203550042524219 20.690621709478336 1.7899639438012551 0 -1 0
134 1 11.985257071595365 0.5008287622286016 0.2870095552604464 0 0 0
516 1 10.88603517336941 1.1550096639842706 2.7249965000954703 0 0 0
521 1 9.604826000161998 1.3214330252045454 0.4439411930723709 0 0 0
263 1 12.677715320667286 2.726966282761479 2.398996846128196 0 0 0
478 1 15.859816271221078 2.2173905337577793 1.8311890681310687 0 1 1
411 1 17.367839909979068 0.8596132958425752 0.5635346542127828 0 0 1
26 1 21.334829709374635 2.2146085119171532 2.0305432609444893 -1 0 1
396 1 20.17372281636101 0.8849793748770026 3.385183541336223 0 0 0
40 1 2.128802849918748 5.0537194274606 2.072402529841452 0 0 0
63 1 3.40369732649708 4.073103440613651 0.2912753257967619 0 0 1
367 1 7.3890515831183246 5.289679115430201 1.516644201595358 0 1 0
51 1 9.809991721414208 4.9150375372572945 2.294223995497412 0 0 1
142 1 10.424306146776802 3.471731908059807 0.31243739747185095 0 0 0
257 1 13.4078739910787 5.3881692338390925 2.0324621719621234 0 0 0
143 1 14.523669338678133 3.6260608624708235 0.5355437157144937 0 0 0
424 1 18.574747029441436 5.097174191756035 2.1918707256462238 0 0 0
385 1 19.895152237636875 3.7995783801294616 0.7443718272646286 0 0 0
39 1 0.599928291508945 6.263794715525353 0.8381004905723329 0 0 0
37 1 0.8213739968154522 9.199489509066277 3.140849231081964 0 0 0
47 1 4.690021966780665 7.93190216853421 1.6410450537223817 0 0 0
33 1 3.418873962996277 9.156219269775427 0.3974113698353675 0 0 0
168 1 5.983485239153467 6.629769648245937 0.2716539848471707 0 0 0
204 1 6.3880486756980455 9.044821751050435 2.849166373433074 0 0 0
101 1 8.023274788198426 7.458151628996807 2.4701486164959867 0 1 0
165 1 8.768908642186675 9.33765185909858 0.4549135103423979 0 0 0
386 1 10.650703208984527 8.198724362776295 1.9055064350950837 0 0 0
294 1 11.952244775139668 6.74648349525367 0.6264125094713404 0 0 0
302 1 16.063787465506607 7.9690924328577815 1.7396944946962511 0 0 0
161 1 14.633090308678206 9.545147552012779 0.4776142670156271 0 0 0
423 1 17.5587627586007 6.649964393836605 0.6465275204708769 0 0 0
34 1 21.174299124470036 7.8664873373240765 2.0580195856915195 -1 0 0
417 1 20.029518628444425 9.439534300392253 0.6455887915086183 0 0 0
72 1 2.183856987061052 10.434194274387766 1.7711411629277607 0 0 0
71 1 1.0077606762610243 11.840554590385032 0.42985612156110237 0 0 0
199 1 6.185798636102035 12.06444207884175 0.43358553781287745 0 0 0
200 1 7.666517927516952 10.82657968669752 1.826369134898167 0 0 0
293 1 11.671332754691932 12.167183111633946 0.5898422480582338 0 0 0
315 1 13.289036396078798 10.845385927103669 1.907586929544899 0 0 1
455 1 17.33508362549381 12.05389892697157 0.502902701453409 0 0 0
456 1 18.5329024013685 10.657456878339191 2.074968250600073 0 0 0
69 1 0.7947973695793374 14.360146360216818 3.1836823458820884 0 0 0
194 1 4.7207659324033475 13.579962021322496 1.75152575322754 0 0 0
65 1 3.347848616251496 14.92388340566657 0.5069394982483254 0 0 0
193 1 8.778135790482574 14.787354944079388 0.4728167607083084 0 0 0
195 1 10.216720901301803 13.453915343413371 1.8109454625639223 0 0 0
325 1 14.560574583515308 14.621940225682255 0.4120825963596666 0 0 0
517 1 15.93099304059652 13.357915055456395 1.8856970099813308 0 0 0
66 1 21.31113717492153 13.038180472082884 1.7852847176518143 -1 0 0
449 1 20.011785142802907 14.504170673258573 0.4635712256724573 0 0 0
104 1 1.8609248316141689 15.9870920886954 1.8437604733746824 0 0 0
103 1 0.8045295249071188 17.474898226839812 0.5501846927048525 0 0 0
226 1 4.7083181998501695 18.78000984152258 1.7865986980627924 0 0 0
231 1 6.073393851721233 17.2056443288685 0.6001791875678921 0 0 0
232 1 7.5277161678478395 16.032741449718543 1.9056569699878412 0 0 0
359 1 11.795088647817975 17.364220757383688 0.4997154939646104 0 0 0
129 1 10.51308048770526 18.590070626567666 2.0765888887846202 0 -1 0
130 1 13.047964083842476 15.836957590886446 2.0091431522222725 0 0 0
392 1 17.577569904649557 17.232129000458716 0.9494409722818057 0 -1 0
488 1 18.67743428358441 15.784676754167068 2.160628738933889 0 0 0
353 1 15.83316328719325 18.32356055833147 1.9420646015127816 0 0 0
481 1 21.46149267019905 18.626358787614173 2.174523167604408 0 0 0
98 1 1.9845174628492512 21.39920722586744 1.7718386997270277 0 0 0
97 1 3.3305869375333907 19.98353496138555 0.2990670503829646 0 0 0
225 1 7.1578303409196105 20.699274024785407 1.0781042073854696 0 0 0
186 1 9.700966711213926 19.597920171610287 21.365447130091606 0 -1 0
132 1 13.374370823497669 21.220905219114794 2.050527558223394 0 -1 0
416 1 14.700447907104548 19.905872664679908 0.6444877068465523 0 -1 1
345 1 17.244073477975533 19.911821241551877 3.2611984754577428 0 0 1
391 1 18.581630588713107 21.23441695812342 1.9733023934675498 0 -1 0
412 1 19.859575923091796 19.93975592919963 0.7437900671885035 0 -1 1
3 1 2.2731860070800587 2.3465935208080526 4.656487607607501 0 0 0
14 1 1.0076516330302998 0.9719250306820703 6.110460494174186 0 0 0
6 1 6.262569884599708 1.0793436564231584 6.066466708895725 0 0 0
238 1 7.531920122698247 2.6522162172875827 4.855708099953874 0 1 0
110 1 9.512478230684811 2.746722962807217 3.4068150029253683 0 1 0
270 1 12.103029048814422 0.9809076711820219 6.307123892551494 0 0 0
428 1 14.55334236939 1.027883706142872 3.2991195660931507 0 0 0
155 1 13.520660853548486 2.582212143760306 4.945904738601535 0 0 1
398 1 18.57982628128388 2.2758534324042636 4.695287905127915 0 0 0
399 1 17.09757017943509 0.7313291777603027 5.8970219477814885 0 0 0
513 1 0.781802984522405 3.716674748946537 3.4715006849360748 0 0 0
387 1 4.806771562453151 5.297501535762194 4.419449293526345 1 0 0
172 1 3.4864417887196213 3.925294230538643 5.599720584999863 0 0 0
271 1 6.327089505245695 3.8967676424765663 3.0542843813850484 0 0 0
53 1 8.472140350800075 5.456644791286991 4.842160939875573 0 0 1
300 1 11.172924396906344 3.521200144357161 5.222934509283704 0 0 0
136 1 9.886324588006538 5.15811482464448 6.905195210435508 0 0 0
295 1 11.781169759116626 5.516091712295323 3.7821570593504696 0 0 0
389 1 17.08217701281778 3.580273560124104 3.2565629590115535 0 0 0
291 1 15.927929733987279 5.194751980531186 4.674291841823683 0 0 0
5 1 21.513289342678117 4.987473319789997 4.934565987311429 -1 0 0
393 1 19.96814485964464 3.6800449179124852 5.850969863164757 0 0 0
515 1 2.299077062886211 7.904211256257594 4.728126954869086 0 0 0
44 1 0.8430480206576221 6.5184149209801925 6.052673552721098 0 0 0
133 1 3.4305598437832603 6.701253716062219 3.1176772501511874 0 0 0
170 1 3.662782966770604 9.23031386923251 6.08459459112759 0 0 0
507 1 7.207305325516763 8.90056098084475 5.43110582596715 1 1 1
512 1 6.385337405516669 6.471674243493121 5.490896506242458 1 1 1
514 1 9.785298268242368 7.449801306581869 4.311862861721999 0 0 0
131 1 14.767977163579575 6.779033643493599 3.26674504967861 0 0 0
167 1 13.46242559061435 8.175306351974994 4.543332701111607 0 0 0
431 1 17.162357251675086 6.744312803473595 6.067143990710764 0 0 0
421 1 17.28546831500046 9.214562783865086 3.3801297786760123 0 0 0
430 1 18.724524591937765 7.847054765427967 4.717128170764019 0 0 0
419 1 20.012085721882396 6.4854561673035365 3.559726530419518 0 0 0
79 1 1.0564764255410117 11.739643313855854 6.025379221935208 0 0 0
522 1 3.613335926524565 12.070585316094173 3.1166938750197453 0 0 0
67 1 4.761416921852288 10.570133646515982 4.590602683274266 0 0 0
174 1 5.912582459825808 11.957191018260371 5.898544723458016 0 0 0
169 1 9.672274990598195 9.241751566548091 6.089521402788284 0 0 0
357 1 9.081551345272537 11.978285000242504 3.286798453047559 0 0 0
296 1 12.078926998495954 9.472713386511412 3.232789845880581 0 0 0
342 1 10.65492963962901 10.720452578322991 4.694288158288052 0 0 0
268 1 11.592755026386094 12.093132454552377 6.212585247528723 0 -1 0
418 1 14.6434647098981 12.049148572719696 3.3162961390555528 0 0 0
460 1 15.952681627432314 10.543561592095179 4.849939290649592 0 0 0
500 1 17.325409231216657 11.917875326148891 6.198077609169846 0 0 0
451 1 19.828190318916302 11.830080705394657 3.4219877118518176 0 0 0
425 1 19.97475318664003 9.338931539304324 6.0087789068784865 0 0 0
76 1 21.45488578686313 10.527916564600329 4.617716453825556 -1 0 0
78 1 2.154851238899971 13.348951384272457 4.753927601608133 0 0 0
73 1 3.4388698413213463 14.858233005891623 5.8940390717570805 0 0 0
197 1 6.078172610039988 14.663222540343256 3.2313536217872967 0 0 0
206 1 7.43417729913182 13.285871171462501 4.563309185801212 0 0 0
333 1 8.764769828557938 14.750707633724751 6.070538226440578 0 0 0
328 1 11.523521455512219 14.576188083773024 3.3432224241896566 0 0 0
330 1 13.075103787310791 13.441466564982544 4.6536280449671645 0 0 0
450 1 14.508066370724327 14.708118046674173 6.131356495539687 0 0 0
321 1 17.381599817250336 14.31100716878336 3.3175970157256574 0 0 0
462 1 18.741916931908403 13.30572831388775 4.892021036969157 0 0 0
457 1 20.007805308127363 14.620051405757836 6.400553276872701 0 0 0
111 1 0.7661734962460621 17.29449578733651 5.839334491098992 0 0 0
334 1 2.1985991866748824 18.74268669887858 4.609375164247904 1 0 0
99 1 3.380360563949197 17.45405385108508 3.132679751180339 0 0 0
236 1 4.838660266448362 15.946790507383906 4.557530809079542 0 0 0
240 1 6.085251208325116 17.43216172709435 5.85043016515449 0 0 0
135 1 9.064036535547924 17.179311681000172 3.0805027416120723 0 -1 0
366 1 7.587984208368479 18.54599566398827 4.307570052163558 0 0 0
261 1 10.311687586600202 15.929762523356843 4.587046158861781 0 0 0
482 1 14.433510263164521 17.034304209960144 3.3762950442615316 0 0 0
347 1 13.041935792717496 18.22579753729337 4.967688649257603 0 0 1
453 1 15.945572357717802 15.63896198044255 4.701139127055216 0 0 0
360 1 17.158170786421746 17.25751232612486 5.9065383239441935 0 0 0
494 1 19.803697504384076 17.375129856366065 3.4107039243574917 0 0 0
108 1 21.150044250742347 15.832017126080716 4.633580029512783 -1 0 0
105 1 0.9123091840524432 20.136984325263864 3.3207737116825284 0 0 0
140 1 6.11120974238574 20.042936380285873 3.0873620216363373 0 -1 0
16 1 4.89861950303638 21.749151299189624 4.467920110811699 0 -1 0
354 1 3.551675205865292 20.169326214500945 5.817878003385399 0 0 0
4 1 8.289750474027466 0.015136968449439792 3.99287968097772 0 0 0
229 1 12.044867549661408 19.792753820012358 3.3765100473450382 0 0 0
227 1 10.806919689876906 21.17305717772488 4.611729976520868 0 0 0
487 1 18.52710471885046 18.64806274110615 4.8322296637888975 0 0 0
258 1 15.616404017151856 21.138502524067828 4.654399093571122 0 -1 0
509 1 21.354977921685272 21.382021170129462 4.74939396514256 0 0 1
489 1 20.024033932806628 20.044327992983362 6.07886687204786 0 0 0
7 1 3.376801458553885 0.9117217885871796 8.70238188783923 0 0 0
8 1 4.571115945420998 2.4619821336185876 7.260000744346224 0 0 0
139 1 8.867633446542891 0.6189844458764636 8.803909194961607 0 0 0
266 1 10.673576518564012 2.10210107954324 7.881566767070666 0 0 0
267 1 14.521510572098148 0.9153028545246693 8.968350952454506 0 0 0
394 1 15.713709499366868 2.3644679758291494 7.303515537801033 0 0 0
395 1 19.78097251522754 1.1366371562862732 8.701335562229618 0 0 0
10 1 21.240806782328047 2.462445427597538 7.345951801420629 -1 0 0
48 1 2.1404547189996235 4.971498425812557 7.291042872708111 0 0 0
13 1 0.8960736984182142 3.6905502549968934 8.717604753906736 0 0 0
233 1 8.428619368664206 3.0992255500988226 7.057544607383894 0 1 0
12 1 6.277292836045314 3.63616108202969 8.497035532762311 0 0 0
35 1 7.0561615346219675 5.907012745480698 7.821452134841721 0 0 0
269 1 12.001863869796773 3.7443675760870225 8.897150994500798 0 0 0
265 1 14.781804216969952 3.9134014951626352 6.170927030395466 0 0 0
304 1 13.404127109528343 5.247449619289011 7.403566537990928 0 0 0
397 1 17.382584540396486 3.728231979391594 8.302077591816548 0 0 0
432 1 18.608921335711827 5.223547344134357 7.055296481084522 0 0 0
178 1 0.9452406068023227 9.265088466492081 8.693676569349295 0 0 0
43 1 3.514130389783425 6.4394387552513885 8.78335265913653 0 0 0
137 1 5.175492664444531 7.6475040713019435 7.553956320999077 0 0 0
75 1 6.096500662835008 9.256560176369309 8.823367492419829 0 0 0
519 1 9.260881471158251 6.757862621375598 8.834453484425547 0 0 0
303 1 10.967738187315923 8.071450525147132 7.83890903096808 0 0 0
290 1 12.036268698057336 6.773658469874342 6.1752455816294285 0 0 0
299 1 14.645682554133142 6.524183333103246 8.915361605648704 0 0 0
426 1 15.950959593292927 7.95458854287723 7.529577078528694 0 0 0
438 1 17.32187744617348 9.172905115211165 9.040479447114182 0 0 0
427 1 19.893210030465003 6.388149913932474 8.615668722513925 0 0 0
42 1 21.383076284795568 7.915330560893136 7.21182066237958 -1 0 0
80 1 2.520185149957854 10.450800843091724 7.408925433617451 0 0 0
171 1 3.6160441932379395 12.011465172061232 8.729232735005326 0 0 0
207 1 7.328159350359549 10.41180740255019 7.310693746708618 0 0 0
492 1 8.897185009316726 11.786793643025064 8.84654013985713 0 0 0
310 1 12.21300910898033 9.48683606251051 9.09138604101827 0 0 0
297 1 14.622091727609494 9.319922126560824 6.28175570164654 0 0 0
289 1 13.202489002556623 10.669411843827739 7.443319032360002 0 0 0
331 1 14.71573405820395 12.108177946987054 8.929197607640319 0 0 0
464 1 18.674280197933236 10.707385509570205 7.663420732283428 0 0 0
84 1 19.96342828979372 11.998747024762789 9.057116950787638 -1 0 0
116 1 0.8092660934128498 14.522084621245021 8.684808367381612 0 0 0
46 1 4.804918680408617 13.4778003830839 7.414363404594295 0 0 0
205 1 6.1895578440785535 14.834076477519808 8.713665053071155 0 0 0
490 1 10.137045560153549 13.206002418518 7.591233320052348 0 0 0
230 1 11.531079156012526 14.776185895259681 9.055226808875736 0 0 0
355 1 15.808834498760342 13.291740721707956 7.398337389281909 0 0 0
472 1 17.040710750458498 14.93393814200526 8.759388532154372 0 0 0
74 1 21.398173354750433 13.003619908604303 7.474854311207996 -1 0 0
112 1 2.1094402145906828 16.056092440136794 7.334738969611306 0 0 0
107 1 3.4821959943795617 17.49073444316512 8.888495390574471 0 0 0
337 1 7.472641705312191 16.190519986107674 7.453462665482503 0 0 0
235 1 8.823438198259922 17.40108371354633 8.787953347938243 0 0 0
253 1 11.429294886513414 17.043828065972125 6.284860411715111 0 1 1
317 1 12.917332893678424 15.900650679769207 7.432752135893965 0 0 1
374 1 14.269552253491723 17.449716172142043 8.679341418507297 0 0 0
322 1 16.000041499115053 18.467160086258684 7.458689034773764 0 0 0
496 1 18.51020063580756 16.019246635672395 7.469799008635369 0 0 0
491 1 19.988054010770405 17.39460199910749 8.812787214688134 0 0 0
106 1 21.315885631720583 18.561410370723742 7.384471808135012 -1 0 0
15 1 2.1711847846487737 21.244478113251652 7.368014548596698 0 -1 0
109 1 0.7526206733345693 20.192105606034584 8.644874198777591 0 0 0
234 1 4.8989713716912044 18.718068255449293 7.337748569983736 0 0 0
157 1 8.830931249492792 19.98809622889817 5.872837078492218 0 -1 1
237 1 6.182485174482183 20.094874197185916 8.682916211266779 0 0 0
144 1 7.565639033106276 21.319744964515873 7.333536931904556 0 -1 0
362 1 10.309738614988689 18.613209104035853 7.560772119560984 0 0 0
365 1 11.830736110652623 19.92701864343399 8.74938490480331 0 0 0
262 1 14.391248142382219 19.775876393495405 6.253672051600459 0 0 0
272 1 13.164729229115096 21.081753980958542 7.540967878013886 0 -1 0
493 1 17.05326133644945 19.827163505739698 8.784572720624464 0 0 0
400 1 18.54701052482703 21.299464998500238 7.465325181564996 0 -1 0
23 1 0.6488092497130158 0.939701382242086 11.561247765543436 0 0 0
22 1 2.036444800228982 2.2958041187345146 10.09160952418806 0 0 0
151 1 6.446216556778619 0.9515573200315801 11.41617778635397 0 0 0
150 1 7.774178119868529 2.493832571741292 10.088244540194617 0 0 0
279 1 11.813790733547252 0.8230316207399174 11.133660671714404 0 0 0
278 1 13.19212196935489 2.2377083482943156 10.195025668364206 0 0 0
407 1 17.16156354059177 0.8507413675077091 11.27475462481896 0 0 0
406 1 18.62198663585779 2.304955320164302 9.884724406052113 0 0 0
17 1 3.5602154820966194 3.5953036290047655 11.260193610503103 0 0 0
180 1 5.033125690654437 5.120827745028718 9.970869946189225 0 0 0
145 1 9.193454827676693 3.754159322500563 11.54027525911648 0 0 0
308 1 10.558782401173628 5.184513660495057 10.134194402450685 0 0 0
273 1 14.352362951526912 3.6763443251798043 11.590061166091925 0 0 0
436 1 16.002122395023967 5.062507403710634 10.003180280410264 0 0 0
52 1 21.353815144514193 5.009374291421085 10.149754634999091 -1 0 0
401 1 19.8926804369906 3.7192232475697735 11.459178509423554 0 0 0
120 1 0.6986641848303391 6.418515653588278 11.618106728150016 0 0 0
82 1 2.1159783314095475 7.811980588641638 10.177293573343754 0 0 0
216 1 3.595872510649077 9.298876438770646 11.435982242351942 0 0 0
183 1 6.265537862656631 6.5944431644224135 11.650469064084804 0 0 0
9 1 7.6880630624224775 8.062977437744408 10.20902082586738 0 0 0
177 1 8.908535144342368 9.30354106406858 11.746749011389987 0 0 0
311 1 11.915630976012563 6.754458133541233 11.536672090623844 0 0 0
329 1 13.369336607449954 8.032371233828693 10.287791071507709 0 0 0
340 1 14.52231027052032 9.310168933547892 11.649465549166646 0 0 0
439 1 17.174885209811006 6.434378697925182 11.556750261654855 0 0 0
433 1 18.597538576171356 7.474538455590804 9.979603834828858 0 0 0
54 1 20.034822103667356 8.98090543836021 11.430533596334454 -1 0 0
81 1 0.9682494620997807 11.838320796840328 11.40823662703923 0 0 0
49 1 4.871418820321697 10.670799198935986 10.294006418685187 0 0 0
182 1 6.410152716078371 11.960520803761225 11.42210549341357 0 0 0
209 1 10.398251664761082 10.326052593260144 10.209238969779596 0 0 0
341 1 11.602390160657055 11.846005943876149 11.583015599969924 0 0 0
323 1 15.871475691083791 10.589390937847725 10.330408283994185 0 0 0
468 1 17.149955205027275 11.90102140559771 11.584890680251553 0 0 0
220 1 21.282825131313544 10.541643303345955 10.226408279594624 -1 0 0
87 1 2.2882441475154796 13.22258230903486 10.061955478397913 0 0 0
85 1 3.8570269331571136 14.618707042151817 11.496149972089757 0 0 0
458 1 7.5104790114841915 13.333717526432126 9.885274327541302 0 0 0
305 1 8.65052360222267 14.913905904130003 11.443835698391908 0 0 0
463 1 12.941400360250228 13.337632554332595 10.2834802554851 0 0 0
469 1 14.283946029859877 14.85171442243839 11.500581302672765 0 0 0
495 1 18.377075010121082 13.261341089505402 10.19488722224626 0 0 0
77 1 20.045800309523763 14.377308921579742 11.491339201854396 -1 0 0
119 1 0.9520684470960722 17.444762224805416 10.963716904566956 0 0 0
244 1 4.851099692709986 16.1058642881727 10.316808109248345 0 0 0
247 1 6.201094553699888 17.51735654183831 11.632746246534547 0 0 0
246 1 7.536280582160077 18.841718072250025 9.997706976468997 0 0 0
338 1 10.21382794030356 16.327721078786116 10.33973266181674 0 0 0
344 1 11.841882585053193 17.403024533751545 11.458057933358534 0 0 0
498 1 15.532948007933207 16.3418173993647 10.095903874308263 0 0 0
470 1 17.389923422167723 17.25057083149019 11.366167644650094 0 0 0
502 1 18.483125940278445 18.780096515316867 10.139525517610025 0 0 0
55 1 21.238257886060456 15.76297738067535 10.05623494421858 -1 0 0
118 1 2.234018382477272 19.06854374164802 10.054794627537122 0 0 0
148 1 4.861987453532237 21.409071882693993 10.131178997592118 0 -1 0
113 1 3.5617040401891686 20.126659064635504 11.457256432735978 0 0 0
241 1 9.086220834307127 19.806365874755006 11.409690608766121 0 0 0
276 1 10.377851184886943 21.13501565541956 10.116784356770978 0 -1 0
368 1 13.127028546442437 18.641785965351644 10.172782198879696 0 0 0
370 1 14.624558362766141 19.719216155397298 11.691767492253444 0 0 0
404 1 15.810088710290213 21.04384600557245 10.396196777733923 0 -1 0
20 1 21.056467045265688 21.426822675307577 10.08279039880682 -1 -1 0
497 1 19.99599510839903 20.003839590116165 11.624061709127345 0 0 0
30 1 2.1681094469562927 2.275221452900921 15.260974784982114 0 0 0
146 1 4.99816822331574 2.3491032466719437 12.543342062132373 0 0 0
19 1 3.66340130254236 1.039063701512018 14.011155121405553 0 0 0
147 1 9.214785160574554 0.6738805667848227 13.99848889313003 0 0 0
158 1 7.9636109081365705 2.1512777507490086 15.41992929722797 0 0 0
274 1 10.568813221381301 2.129262107502078 12.73914752335512 0 0 0
275 1 14.577642841025694 0.5918416649175429 13.930546175852069 0 0 0
286 1 13.437894163964026 2.309051591114019 15.35878802049043 0 0 0
402 1 15.805541337488128 2.082255579738311 12.739145248454625 0 0 0
414 1 18.47991656930141 2.3498029037313866 15.536240447054187 0 0 0
18 1 20.85306440887477 2.3167146136812806 12.780695031278551 -1 0 0
403 1 19.603196230515426 0.886003097084078 14.12382602770206 0 0 0
56 1 2.3463677150157416 5.004599065165335 12.849416333163292 0 0 0
21 1 0.6446497643758162 3.8557910420212753 14.036854862552222 0 0 0
188 1 5.067872839388827 4.828099337148661 15.456806562622228 0 0 0
181 1 6.596780764594695 3.599868263099271 13.91748043391261 0 0 0
184 1 7.97153661594702 5.336502875448698 12.99171286583036 0 0 0
277 1 11.946685773356371 3.7237635777432505 13.906723317216164 0 0 0
316 1 10.721568373306658 5.063057722251787 15.520853420292044 0 0 0
312 1 13.155028263791744 5.328479186263418 12.720413542903268 0 0 0
405 1 17.144688146606786 3.6658832503698067 14.108042202032285 0 0 0
440 1 18.69871768531561 5.1533923640499095 13.019924714101474 0 0 0
435 1 20.17862195821092 6.321579943263151 14.450557396621374 0 0 0
202 1 1.15834980651465 9.168911874667808 14.278830347302 0 0 0
41 1 2.3751429458095608 7.605365847161629 15.544913625222925 0 0 0
176 1 3.7654982844730793 6.308974383461843 14.139607757112634 0 0 0
62 1 4.888341481868544 7.831783637347339 13.01212557946946 0 0 0
179 1 9.336049613566804 6.347665572176129 14.321748694565711 0 0 0
465 1 6.32036530092394 9.026358364746091 14.342118633139197 1 0 0
306 1 10.634630006888608 7.894024761801048 13.170967461338384 0 0 0
348 1 11.777993747869875 9.431633378252265 14.582157260231078 0 0 0
307 1 14.73690378257545 6.647733895678144 14.09189714707482 0 0 0
318 1 13.198011429668751 7.902535176079686 15.722895477263469 0 0 0
434 1 16.045859125728345 8.014135786841603 12.837645670875409 0 0 0
313 1 17.38587362059196 9.150865192886073 14.17838148109533 0 0 0
446 1 18.776450944942866 7.700306227771744 15.661284450876726 0 0 0
459 1 21.257982747078316 7.726677633257456 13.007174788345948 0 0 0
467 1 2.2875729662742086 10.488872203304465 12.819247280388188 1 0 0
45 1 3.562999104487889 11.902956574286202 14.19914366644959 0 0 0
214 1 7.545830943464299 10.583890639768622 13.007788889668177 0 0 0
350 1 9.059266528543858 12.092435545010936 14.189519911325958 0 0 0
375 1 10.214725208740871 10.592574912812255 15.67169198311662 0 0 0
309 1 13.092045467468852 10.810701202420333 13.067374044675125 0 0 0
343 1 14.66033745599664 12.027335742750525 14.397930786546917 0 0 0
429 1 18.821390841325297 10.48483840794831 12.768859140831387 0 0 0
508 1 20.077436815901986 11.905935059789488 14.096571221730374 0 0 0
94 1 1.0903515153844245 14.551690712090185 14.084869363899466 0 0 0
95 1 2.2678257711876735 13.35878092461971 15.667809889601186 0 0 0
175 1 5.063466133106928 13.116446490483753 12.983399500637585 0 0 0
213 1 6.237917960999788 14.617655776759548 14.264622569728479 0 0 0
376 1 10.191689219898688 13.389513008073791 12.788668576361992 0 0 0
476 1 11.817970218677145 14.50708511908617 14.262592949516675 0 0 0
335 1 15.613889761130626 13.300006957427403 12.897236898576034 0 0 0
361 1 17.145757125053258 14.762266479090416 14.09446037730312 0 0 0
437 1 18.55634350234154 13.247134799506235 15.348366677912704 0 0 0
92 1 21.50859101480576 13.08032293358401 12.827501909362176 -1 0 0
203 1 2.1783428749728984 16.036895019271277 12.660970524082128 0 0 0
126 1 2.028731744024697 18.60018614265119 15.468763529648603 0 0 0
115 1 3.4795667185708523 17.301484669574283 14.141406571942387 0 0 0
242 1 4.51027002291335 18.664123772081116 12.820654347654274 0 0 0
252 1 4.792676723322955 16.227589210213353 15.386910490870546 0 0 0
336 1 7.51097764635046 15.975926558907533 12.90745344287352 0 0 0
243 1 9.046322543501363 17.147871947386516 14.187259909847375 0 0 0
254 1 7.7515997791713085 19.03734715839973 15.272262475504734 0 0 0
380 1 10.303901844215106 15.851091020359888 15.724461995386877 0 0 0
373 1 10.428184582504805 18.60590719135981 12.930057168184348 0 0 0
363 1 12.866573587943646 16.008781632615204 12.87714315178093 0 0 0
332 1 14.542466802437575 17.08319880621598 14.23076404743203 0 0 0
384 1 15.894950211512635 15.820576333829525 15.594450445834383 0 0 0
364 1 18.693128764361486 15.846301877846715 12.787636844086116 0 0 0
461 1 18.688367955260475 18.45540834356013 15.32649294390262 0 0 0
499 1 20.23022757019079 17.272708144736548 14.039474183311524 0 0 0
114 1 21.582453627460875 18.590481262020358 12.552362107370424 -1 0 0
124 1 21.44401297924491 15.891085293975046 15.355154274029266 -1 0 0
24 1 2.2095916825902218 21.521377509985804 12.610418298688776 0 -1 0
117 1 0.9702653898069964 20.202833512860117 13.949850969988459 0 0 0
245 1 6.099587461268729 20.046966375323805 13.983356668292371 0 0 0
156 1 5.012151074854745 21.361351486725933 15.266422258543075 0 -1 0
152 1 7.684725736281622 21.277958282587853 12.749711513117202 0 -1 0
280 1 11.92219846871065 19.81642066783756 14.12654349682036 0 -1 0
284 1 10.827764093362124 21.15545783651635 15.225483201642117 0 -1 0
369 1 13.037930788599091 21.20091429450953 12.68422917935555 0 0 0
520 1 15.92762605486922 18.45919262082971 12.978698714300675 0 0 0
501 1 17.29163775956911 19.788233851162822 14.279003688358854 0 0 0
408 1 18.324944707451603 21.185121876536897 12.719408084596111 0 -1 0
31 1 0.5678144343993272 0.9065095785873287 16.515387086493938 0 0 0
64 1 4.890852544298332 2.2798281621666923 17.983079828047774 0 0 0
159 1 6.506889873166243 0.880036287128104 16.91474452353253 0 0 0
287 1 12.177187136422468 0.8926844821687748 16.697990988651185 0 0 0
282 1 10.566025666485448 2.1665273233576228 17.881901347764565 0 0 0
410 1 15.801637348419545 2.3282420899734335 18.439021532809996 0 0 0
415 1 17.101332365511798 1.1756155913037996 17.131473547047005 0 0 0
371 1 21.295988253465968 2.3451139994117565 18.085730264985678 0 1 0
191 1 2.2591584066104913 5.002076971652588 18.507471720924716 0 0 0
96 1 3.3577323983039817 3.6455318841479163 16.68329941046902 0 0 0
192 1 7.719805453841826 4.941619433330303 18.180988834811618 0 0 0
153 1 9.057229541299323 3.4708345104223186 16.74623048021326 0 0 0
281 1 14.46400080429907 3.68908368714638 16.994134955410644 0 0 0
320 1 13.25504698544609 5.260777393202375 18.586561987957346 0 0 0
444 1 15.988789044538889 5.168648044727682 15.610398872611718 0 0 0
448 1 18.738705061139076 4.971663611110941 18.305967108821925 0 0 0
60 1 21.611831902512936 5.109070312201346 15.709139060051221 -1 0 0
409 1 20.06126326979878 3.8242573952465633 16.667533141812555 0 0 0
173 1 1.2217790482163644 6.223305017735309 17.03781968313229 0 0 0
86 1 5.152003722757053 7.645153655370792 18.380433895285588 0 0 0
57 1 3.7667935075072196 9.057721407761607 17.026679082932983 0 0 0
149 1 6.359274542738414 6.319513478891419 16.904682997671294 0 0 0
83 1 7.757608523242248 7.561079487885835 15.507693411472541 0 0 0
185 1 8.927204563719235 9.047670717343765 16.970448543031807 0 0 0
319 1 11.785084523072147 6.514629518202936 16.90203177174688 0 0 0
314 1 10.360677827362489 7.627808445081239 18.45621710311417 0 0 0
327 1 14.8303005544907 9.151209034258303 16.805913685611852 0 0 -1
442 1 16.04615965565766 8.14028553918925 18.365625800133397 0 0 0
447 1 17.30443997244511 6.459543622726607 16.914375409085395 0 0 0
58 1 21.574317117470997 7.6931953329283855 18.37210220695291 -1 0 0
441 1 20.100282920451875 9.085186261334584 16.82214971318277 0 0 0
298 1 0.9894415080695045 11.926848276973057 16.636272497158696 0 0 0
210 1 2.2827430443695422 10.65915206789722 18.262725346689734 0 0 0
88 1 4.913895983554197 10.43251045596736 15.60124126149104 0 0 0
223 1 6.136484944683387 11.88643320127292 16.745057371340565 0 0 0
224 1 7.556104354232092 10.559661344667148 18.082321940135053 0 0 0
211 1 11.288243770270856 11.865024684914319 17.422337502653246 0 0 0
351 1 13.387421666253717 10.608043799106644 18.066294752101467 0 0 0
339 1 16.051078691833904 10.426486390612638 15.395325054724973 0 0 0
504 1 17.337007455929356 11.880944652677297 16.786333536026774 0 0 0
480 1 18.81452359466203 10.592534368541877 18.066656453338002 0 0 0
518 1 21.18233944562454 10.498909076367715 15.53205764753147 -1 0 0
89 1 3.632958229132668 14.845897156449906 16.92025262594648 0 0 0
218 1 4.7533034396263 13.322552847781358 18.17050891590377 0 0 0
222 1 7.486535742901097 13.257812998105559 15.549715533896443 0 0 0
217 1 8.77700003371588 14.55063910793331 17.196458996769156 0 0 0
346 1 10.004347414038602 13.456055935669228 18.560157077001517 0 0 0
372 1 12.665967072976153 13.16581444882842 15.910585524832245 0 0 0
474 1 14.291782379786977 14.636637523260667 16.922414096821917 0 0 0
479 1 15.680237372238425 13.160372442878977 17.963815144493505 0 0 0
90 1 21.43145807616532 13.314201750496297 18.061817248375746 -1 0 0
473 1 20.089958284764975 14.492686699934266 16.752170257467643 0 0 0
128 1 2.1004991712880927 16.044443246044548 18.1792094220182 0 0 0