LAMMPS (10 Sep 2025)
OMP_NUM_THREADS environment is not set. Defaulting to 1 thread.
  using 1 OpenMP thread(s) per MPI task
Loaded 1 plugins from C:\Users\lmike\AppData\Local\LAMMPS 64-bit 10Sep2025 with GUI\plugins
# LAMMPS input generated from LammpsInputFile with pymatgen v2025.10.7

# STYLES
units metal
atom_style atomic

# SET UP CALCULATION
read_data starting_config.dat
Reading data file ...
  orthogonal box = (0 0 0) to (21.800341 21.800341 21.800341)
  1 by 1 by 1 MPI processor grid
  reading atoms ...
  522 atoms
  read_data CPU = 0.003 seconds
pair_style sw
pair_coeff * * Si.sw Si
Reading sw potential file Si.sw with DATE: 2007-06-11
velocity all create 1200 8388877

# CALCULATION PARAMETERS
fix f1 all nvt temp 1200.0 1200.0 $(100.0*dt)
fix f1 all nvt temp 1200.0 1200.0 0.10000000000000000555
thermo 100000
thermo_style custom step temp press spcpu cpuremain

# RUN CALC AND WRITE OUTPUTS
dump d1 all custom 100 state_dump id type x y z vx vy vz
run 10000000
Neighbor list info ...
  update: every = 1 steps, delay = 0 steps, check = yes
  max neighbors/atom: 2000, page size: 100000
  master list distance cutoff = 5.77118
  ghost atom cutoff = 5.77118
  binsize = 2.88559, bins = 8 8 8
  1 neighbor lists, perpetual/occasional/extra = 1 0 0
  (1) pair sw, perpetual
      attributes: full, newton on
      pair build: full/bin/atomonly
      stencil: full/bin/3d
      bin: standard
Per MPI rank memory allocation (min/avg/max) = 3.121 | 3.121 | 3.121 Mbytes
   Step          Temp          Press          S/CPU         CPULeft    
         0   1200           83008.734      0              0            
    100000   1153.5378      16822.058      395.6555       25021.768    
    200000   1174.4571      17063.101      470.04631      22809.016    
    300000   1200.2776      19641.786      541.22441      21024.956    
    400000   1230.9396      19820.29       436.73776      21101.441    
    500000   1264.1138      18980.948      443.48861      20989.521    
    600000   1219.1205      18760.99       444.27166      20833.52     
    700000   1141.5604      17672.86       428.62752      20766.926    
    800000   1181.5099      18802.369      454.44923      20506.208    
    900000   1105.0838      19550.369      441.11306      20321.794    
   1000000   1181.7766      15513.81       455.95052      20062.529    
   1100000   1211.3921      19482.589      440.09994      19874.436    
   1200000   1182.1497      17141.012      445.29158      19660.395    
   1300000   1215.7337      18891.832      450.79333      19426.391    
   1400000   1160.931       18415.832      447.34881      19204.619    
   1500000   1162.413       16332.813      440.74261      19001.597    
   1600000   1209.9745      18151.248      451.04285      18768.39     
   1700000   1129.7668      14304.046      448.34003      18543.062    
   1800000   1226.3022      18473.969      451.362        18311.184    
   1900000   1265.2727      20360.182      432.53033      18121.515    
   2000000   1171.3545      18764.42       433.45306      17925.725    
   2100000   1159.2736      16801.122      446.90579      17700.485    
   2200000   1182.128       17149.239      441.24737      17485.552    
   2300000   1203.4351      18238.611      448.72278      17256.962    
   2400000   1212.1547      19083.885      438.18474      17045.823    
   2500000   1228.0269      18882.425      438.73694      16832.455    
   2600000   1173.863       17700.059      450.86268      16600.521    
   2700000   1169.3072      16831.449      446.02979      16375.835    
   2800000   1187.7528      17364.015      457.70467      16136.478    
   2900000   1226.8417      19187.45       443.60533      15915.563    
   3000000   1178.8834      18336.912      441.08876      15697.347    
   3100000   1123.933       17048.703      441.29556      15478.347    
   3200000   1217.6587      19114.525      443.3189       15256.674    
   3300000   1175.1152      18802.417      435.93775      15042.519    
   3400000   1177.3874      17722.09       437.01685      14826.368    
   3500000   1184.755       17994.401      442.59113      14604.141    
   3600000   1211.7145      16546.751      446.93856      14377.8      
   3700000   1193.1499      18327.46       447.67346      14150.974    
   3800000   1253.1333      17626.412      439.07022      13931.471    
   3900000   1233.5247      18718.086      459.51336      13695.697    
   4000000   1215.4135      20495.508      434.40523      13479.697    
   4100000   1227.8893      18468.65       446.87243      13253.763    
   4200000   1188.7613      17994.196      452.63766      13023.996    
   4300000   1150.869       19832.202      446.43015      12798.712    
   4400000   1181.0809      16686.597      464.88155      12562.171    
   4500000   1243.9917      18794.68       437.1453       12343.264    
   4600000   1128.4955      17108.009      436.56166      12124.288    
   4700000   1185.5101      18877.516      445.35306      11899.783    
   4800000   1211.207       19021.402      441.72168      11677.277    
   4900000   1177.4811      14597.478      445.21809      11452.762    
   5000000   1219.2008      15535.581      446.80963      11227.443    
   5100000   1122.6827      16226.08       440.90041      11005.065    
   5200000   1203.3767      17678.601      451.46367      10777.618    
   5300000   1223.4407      20202.474      449.38357      10551.305    
   5400000   1205.3385      19219.865      435.54329      10331.156    
   5500000   1127.8929      18200.016      436.49876      10110.252    
   5600000   1178.1304      16699.823      438.10872      9888.3936    
   5700000   1188.3027      17406.085      443.60982      9664.1757    
   5800000   1212.1686      20551.891      434.14303      9443.4758    
   5900000   1222.9431      16990.89       438.22883      9220.9567    
   6000000   1230.8199      19889.51       433.19164      9000.0176    
   6100000   1178.4475      16715.422      437.30821      8777.3643    
   6200000   1199.4494      17656.072      428.43095      8557.4209    
   6300000   1226.5088      18546.063      441.089        8333.1162    
   6400000   1179.0551      19503.849      436.47118      8110.0854    
   6500000   1182.4209      19525.013      449.63053      7883.257     
   6600000   1246.6175      18242.671      439.80632      7659.122     
   6700000   1180.9052      18946.686      454.83852      7431.189     
   6800000   1056.9936      19942.475      433.85602      7208.4973    
   6900000   1205.8535      18194.092      436.36659      6984.9837    
   7000000   1222.4852      19722.796      450.30347      6758.269     
   7100000   1211.4733      21078.958      437.61602      6534.3148    
   7200000   1120.1326      21264.91       429.83652      6311.8424    
   7300000   1203.3704      16808.116      440.30164      6087.046     
   7400000   1164.5795      17933.295      438.58153      5862.4999    
   7500000   1204.1395      20495.778      436.45714      5638.2314    
   7600000   1201.3468      19912.266      456.03206      5410.7296    
   7700000   1196.816       16559.627      449.77773      5184.352     
   7800000   1163.5693      16994.774      455.03081      4957.3543    
   7900000   1175.0139      17860.169      461.38978      4729.7345    
   8000000   1264.3849      21169.493      460.62105      4502.4773    
   8100000   1122.0528      18414.276      459.24414      4275.6235    
   8200000   1159.2107      18280.848      471.87105      4047.7128    
   8300000   1097.5337      17101.131      483.43793      3819.1488    
   8400000   1213.036       17561.818      488.11337      3590.7243    
   8500000   1232.6737      20403.399      514.56912      3360.9953    
   8600000   1182.749       14564.055      515.84646      3132.011     
   8700000   1238.0978      18292.282      524.8578       2903.3369    
   8800000   1203.7957      17896.105      562.1379       2673.8068    
   8900000   1145.5335      16347.075      609.83021      2443.7175    
   9000000   1211.1335      17589.826      644.68515      2214.1123    
   9100000   1252.2691      21854.79       684.0064       1985.2624    
   9200000   1163.3384      16620.694      689.79209      1758.1026    
   9300000   1203.9425      17000.862      687.23732      1532.7508    
   9400000   1156.6284      16334.09       683.76621      1309.145     
   9500000   1240.5557      18477.264      690.82133      1087.0891    
   9600000   1138.7319      18051.243      704.88613      866.52336    
   9700000   1150.854       20458.893      699.12717      647.61637    
   9800000   1085.9009      15849.322      717.84322      430.18168    
   9900000   1204.0296      17976.084      748.81822      214.26713    
  10000000   1264.3887      17935.03       767.62695      0            
Loop time of 21342.7 on 1 procs for 10000000 steps with 522 atoms

Performance: 40.482 ns/day, 0.593 hours/ns, 468.544 timesteps/s, 244.580 katom-step/s
99.5% CPU use with 1 MPI tasks x 1 OpenMP threads

MPI task timing breakdown:
Section |  min time  |  avg time  |  max time  |%varavg| %total
---------------------------------------------------------------
Pair    | 20985      | 20985      | 20985      |   0.0 | 98.32
Neigh   | 74.163     | 74.163     | 74.163     |   0.0 |  0.35
Comm    | 50.783     | 50.783     | 50.783     |   0.0 |  0.24
Output  | 151.1      | 151.1      | 151.1      |   0.0 |  0.71
Modify  | 63.59      | 63.59      | 63.59      |   0.0 |  0.30
Other   |            | 17.89      |            |       |  0.08

Nlocal:            522 ave         522 max         522 min
Histogram: 1 0 0 0 0 0 0 0 0 0
Nghost:           1285 ave        1285 max        1285 min
Histogram: 1 0 0 0 0 0 0 0 0 0
Neighs:              0 ave           0 max           0 min
Histogram: 1 0 0 0 0 0 0 0 0 0
FullNghs:        19158 ave       19158 max       19158 min
Histogram: 1 0 0 0 0 0 0 0 0 0

Total # of neighbors = 19158
Ave neighs/atom = 36.701149
Neighbor list builds = 97613
Dangerous builds = 0
write_data FINAL_STRUCTURE
System init for write_data ...
Total wall time: 5:55:42
