LAMMPS data file via write_data, version 10 Sep 2025, timestep = 10000000, units = metal

507 atoms
1 atom types

0 21.772397 xlo xhi
0 21.772397 ylo yhi
0 21.772397 zlo zhi

Masses

1 28.085

Atoms # atomic

6 1 2.5027385989689557 0.24850338182647397 2.348935814154166 0 0 0
3 1 0.5576770660047168 0.26756801230969146 0.12123724435973042 0 0 0
2 1 5.449833497777916 2.684049118312054 2.5975896808906946 0 0 0
131 1 6.709981292045271 1.0933570322693866 1.4190986820854476 0 0 0
132 1 8.130867854663304 21.618602975711713 2.882606612915991 0 -1 0
130 1 8.14299958807353 2.475435786452717 0.038375181296133216 0 0 0
253 1 10.774551065431426 2.48497737035508 2.871240265245014 0 0 0
258 1 12.219070029610727 1.218278316991837 1.4812826002659558 0 0 0
386 1 18.159674616357773 1.4417049641110966 1.5936122287380234 0 0 0
381 1 16.281466794302563 2.73784871898975 2.653490639182027 0 0 0
383 1 16.632703129880664 0.14140147571230344 0.34882368405907466 0 0 0
385 1 19.353176764079386 3.106111820745273 0.38655911019285 0 0 0
1 1 1.279628384605534 6.296895933161838 1.3212035176063885 0 0 0
5 1 4.053578541559102 3.9196917206648982 1.348013709258389 0 0 0
159 1 5.307608430304351 5.3606772811273355 21.63985016628053 0 0 -1
163 1 8.265989033357211 5.227423441311711 2.8277752959407523 0 0 0
126 1 9.398517646516337 3.883851473756971 1.5025111443316073 0 0 0
252 1 14.964111527315096 4.115203603533989 1.5177158220705744 0 0 0
291 1 13.572630432255586 5.283599329278343 2.83657741697252 0 0 0
419 1 19.21122920289204 5.179060177772383 2.3387323840239946 0 0 0
380 1 21.258060735731153 5.147100417650681 0.32598030592459193 0 0 0
37 1 2.6819510192351768 8.039079709205888 0.3271795399483729 0 0 0
36 1 21.76748942253338 7.956434740031154 2.550711859454131 -1 0 0
31 1 5.463218935271434 7.730996560436571 2.59494328568355 0 0 0
35 1 4.20854143451899 9.355463989424813 1.6615396021410647 0 0 0
162 1 6.858653557143571 6.511587404660801 1.291510407644171 0 0 0
161 1 8.114533114500368 7.981187205146709 21.705370885997162 0 0 -1
285 1 11.073381874269492 7.990088446103015 2.7309097605013 0 0 0
290 1 12.179183466288839 6.639054852478963 1.1847615578960269 0 0 0
284 1 14.964197140813324 9.395059887048031 1.4647189156546283 0 0 0
418 1 17.703557567081322 6.810366673412333 1.362740955253534 0 0 0
413 1 16.27095673436042 8.056139777331946 2.866873637956128 0 0 0
412 1 20.22776498471229 9.457818484974444 1.2855083955741047 0 0 0
69 1 2.6715967601185073 10.866066084711314 2.8255211008199184 0 0 0
68 1 1.3289729100953043 12.274979544386017 1.3236796573613423 0 0 0
191 1 5.3157172285455 10.926440815729736 0.1882258637285581 0 0 0
195 1 8.238977749939744 10.561506774204593 2.788631001963061 0 0 0
194 1 6.829490143662659 12.124289360976606 1.3037605886674386 0 0 0
157 1 9.577266373916801 9.423967089640293 1.2812512863449665 0 0 0
322 1 12.332021694141224 12.343870080000737 1.3601043731110014 0 0 0
319 1 10.905662184605884 10.981393062774861 0.0034040027358557268 0 0 0
323 1 13.642960982776541 10.852231329011142 2.6137755852078985 0 0 0
450 1 17.462805895144847 12.46212976282362 1.172703612820241 0 0 0
451 1 18.858528251247648 10.96534561115133 2.532192460337839 0 0 0
65 1 21.715526066709778 10.917631050558192 0.09400405796621314 -1 0 0
67 1 2.6467714678706895 13.67053435153197 21.71674119790237 0 0 -1
62 1 4.05328469197977 15.0664880190255 1.2251983893266254 0 0 0
189 1 5.225738713286364 13.560620037020193 2.676304959957593 0 0 0
193 1 8.11797818949711 13.57563655235804 21.67539432921817 0 0 -1
188 1 9.355915904083036 14.982544303043962 1.184494969319607 0 0 0
317 1 10.552336659939913 13.653229054411863 2.6421732438131764 0 0 0
316 1 14.876775954005636 14.968786360970807 1.0584146881855159 0 0 0
445 1 16.173386353304235 13.73731399289984 2.532891462084718 0 0 0
63 1 21.673817997996558 13.682584913237385 2.4303947726476225 -1 0 0
444 1 20.30002649215056 15.107858848495797 1.2065056952234312 0 0 0
100 1 1.3091025952426607 17.84804163276792 1.347766955203113 0 0 0
101 1 2.6755089341799208 16.518480233373186 2.723369200563076 0 0 0
223 1 5.401832539658855 16.39237602650071 0.023001163857851236 0 0 0
226 1 6.550881389987763 17.719806158462237 1.4076930101654501 0 0 0
227 1 7.98520077386384 16.313893002942276 2.684371003085068 0 0 0
351 1 10.969167896833047 16.288657421608367 21.688541016628196 0 0 -1
354 1 12.242062080620489 17.602425628993025 1.3435737437229829 0 0 0
355 1 13.552777190830941 16.318166043513383 2.6547221173966555 0 0 0
482 1 17.99723563026688 17.996019728507726 1.226928989354641 0 0 0
483 1 19.042519609369126 16.435869517828685 2.5287954842351406 0 0 0
95 1 21.572057032395396 19.316737141544962 2.314544001421622 -1 0 0
94 1 4.032559797596235 20.361667290450633 1.228234118214271 0 0 0
221 1 5.254853441999518 19.092057713492917 2.6995588234809142 0 0 0
225 1 8.012639386803835 18.946756508799485 0.03972960290203493 0 0 0
220 1 9.407087128780917 20.34608350852024 1.333917414690558 0 0 0
349 1 10.823992435632434 19.076481087023517 2.568518499691839 0 0 0
259 1 13.707584434236983 21.686781255457547 2.778860817990508 0 -1 0
348 1 15.180484500243951 20.42333276821558 1.5325450449167946 0 0 0
477 1 16.630598861142044 19.02345235723296 2.7032876289273897 0 0 0
476 1 20.54082651893711 20.95659182724458 1.244526983722752 0 0 0
481 1 19.285479648866755 19.513295592842205 21.49891188579494 0 0 -1
12 1 2.340340337548916 3.174860380292924 5.02759598997625 0 0 0
7 1 3.977218582896211 1.4212853091527438 3.9163685001125654 0 0 0
136 1 5.122139276356519 0.28071542127870014 5.497349063052498 0 0 0
138 1 8.157820475195187 2.5555455612830174 5.760443464012519 0 0 0
127 1 9.475650985309265 1.2112213699719008 4.3915842074884415 0 0 0
263 1 10.920521213519093 21.606706533864138 5.607939228938775 0 -1 0
265 1 13.541022949670088 2.5140371133085972 5.4134101341544785 0 0 0
254 1 15.019418981318507 1.5071929039573466 4.061233785994366 0 0 0
387 1 19.56976064608382 0.3701673757237139 3.435336003277479 0 0 0
394 1 19.22334996685861 2.26522238675552 5.323028538996651 0 0 0
13 1 21.40644760703838 21.763229149668916 5.120738530375243 -1 -1 0
4 1 2.6336969175930225 4.998601288980547 2.990576258512362 0 0 0
41 1 0.3544656677186881 5.080759443166355 4.981529573096592 0 0 0
167 1 5.409215597058993 5.256993479276995 5.515645974479234 0 0 0
129 1 6.729316781546657 3.961510914299982 4.102196233091387 0 0 0
295 1 10.890067105818352 5.06285399808364 5.465846901437269 0 0 0
256 1 12.180740933933508 3.7339590821201765 4.088524063964919 0 0 0
423 1 16.478171697291085 5.2786171644249436 5.366274741285595 0 0 0
384 1 17.911557003695407 3.915453013618961 3.970334224561783 0 0 0
43 1 2.6225744047936224 8.010966323975117 5.395086491447074 0 0 0
32 1 4.043965046641805 6.448497870970616 3.987070340110329 0 0 0
169 1 8.138490046076301 7.925190288778731 5.531997206583987 0 0 0
158 1 9.68399998887664 6.662547035892945 4.239857520621105 0 0 0
286 1 15.014113469507395 6.745476780559255 4.208080756714953 0 0 0
297 1 13.762198082385629 8.226301848385484 5.422963222991267 0 0 0
414 1 20.594126594820427 6.650572870508123 3.9665866927687214 0 0 0
425 1 19.348265974863324 8.013758275592782 5.386361958060573 0 0 0
34 1 1.2802225279825836 9.36448774030528 4.066757444531084 0 0 0
73 1 21.698175955105743 10.958263691316086 5.229026572737218 -1 0 0
199 1 5.267537689233509 10.649044108416499 5.636497280015407 0 0 0
64 1 4.083000307690533 12.18856581024389 4.130291108557234 0 0 0
160 1 6.718704127881451 9.160482533240504 4.0738446896046305 0 0 0
288 1 12.30072495420228 9.482353284116048 4.051962976749561 0 0 0
327 1 10.737184351222728 10.80763119516317 5.407779885612786 0 0 0
190 1 9.211169599900142 12.198132625899587 4.003515488005741 0 0 0
318 1 15.187287908655442 12.14992638935007 4.137638859426534 0 0 0
416 1 17.943389215268812 9.457704957127179 4.079425375269667 0 0 0
455 1 16.545614927434908 10.887722679148439 5.5423696353882255 0 0 0
446 1 20.456982748251523 12.384479511715153 3.9179676441974944 0 0 0
66 1 1.2015309798036184 15.07043382826327 4.00025986600284 0 0 0
75 1 2.585598258053338 13.533175486177056 5.331814448193565 0 0 0
192 1 6.523372690184436 15.048086649869454 4.174564032985313 0 0 0
201 1 8.031001512642533 13.637544515867686 5.40698522450743 0 0 0
320 1 12.132966651458467 14.850567660293564 3.8427788215685887 0 0 0
329 1 13.493076626898894 13.518910642926269 5.2494560733539775 0 0 0
448 1 17.679305548045534 15.060825859243401 3.9043734342765077 0 0 0
457 1 18.931153631349282 13.608410739918787 5.4272115065692965 0 0 0
96 1 3.824458521991672 17.892758314789297 3.963814019774347 0 0 0
231 1 5.072005550570107 16.447064712052256 5.323679813206293 0 0 0
222 1 9.510597475133686 17.67441582721811 3.8490441209787853 0 0 0
359 1 10.795026087978947 16.233772012446877 5.3165633288295675 0 0 0
350 1 15.058090297395287 17.715739862555587 4.163471054564155 0 0 0
487 1 16.420642502814424 16.239380777357486 5.475341459458044 0 0 0
105 1 21.692075194341538 16.50285518593985 5.522480938256358 -1 0 0
478 1 20.403936164884822 17.816027676422113 3.880932175656413 0 0 0
107 1 2.4186517157167984 19.35216176925344 5.248185372931617 0 0 0
98 1 1.1064067251375258 20.5502677167281 3.8285050008534416 0 0 0
224 1 6.446912395489873 20.522796024160908 4.259711871452022 0 0 0
233 1 8.217704941610949 19.136610558262408 5.382337278475405 0 0 0
352 1 12.238525824190077 20.383140418756486 4.144839248529093 0 0 0
361 1 13.643840268498057 18.996899372441817 5.37527793284179 0 0 0
391 1 16.498825441542373 0.17750234325590242 5.397318111590421 0 0 0
480 1 17.847565953110447 20.52715395931401 4.18414321591743 0 0 0
489 1 19.043086351410956 18.996673103771176 5.330019513681035 0 0 0
382 1 1.210783599575983 1.3436922236224067 6.349486552092775 1 0 0
14 1 2.46363667859191 0.18965413610544957 8.00430989199782 0 0 0
134 1 5.42290969278769 2.6990285649316474 8.058576190045551 0 0 0
139 1 6.685592485777401 1.311789638370306 6.8403009125319185 0 0 0
261 1 10.906124589344897 2.646007289384707 8.176306929477088 0 0 0
266 1 12.275960421708387 1.2771880821834831 6.8791853507919996 0 0 0
267 1 13.677034725156243 21.628222248596312 8.28878811080522 0 -1 0
389 1 16.389457204057738 2.760342328512575 8.365700574149642 0 0 0
395 1 17.77285676844152 1.4147787959835094 7.033704244495817 0 0 0
388 1 0.1666661527831188 2.7998475738948287 8.04959623407194 1 0 0
45 1 2.694920581455456 5.389818971918108 8.112904226407318 0 0 0
8 1 3.9238507147455364 3.9284654163847534 6.858578657764156 0 0 0
171 1 8.308039517806261 5.426589511222022 8.149319599121226 0 0 0
133 1 9.605182279670174 3.9416224061053065 6.883220375532984 0 0 0
260 1 14.924287614787346 4.028587137134542 6.912292840800693 0 0 0
299 1 13.541025549061565 5.571954268229546 8.031048097973382 0 0 0
393 1 20.58804773319996 3.990253708763278 6.521991694069296 0 0 0
427 1 19.211153080749167 5.340122144440194 7.967266366255702 0 0 0
44 1 1.4094687964930175 6.606157620471697 6.651248100059504 0 0 0
39 1 0.1633287517233093 8.154090909374698 7.946262881477031 0 0 0
165 1 5.354946469585653 8.327452274417144 8.287095687414375 0 0 0
170 1 6.732619432173375 6.746717452689621 6.826478418755358 0 0 0
293 1 10.90339043422902 8.061817578754901 8.161896257664583 0 0 0
298 1 12.160121604725752 6.878870266974993 6.4694523858783635 0 0 0
421 1 16.25819720571673 8.074866204604964 8.11258117774023 0 0 0
426 1 17.77632003487015 6.8961083093233375 6.7724239038617045 0 0 0
77 1 2.670630634536765 10.953055344401106 8.05539558765991 0 0 0
76 1 1.2797960146617093 12.08745838580067 6.68507931620094 0 0 0
38 1 3.93989368327337 9.232162288124972 6.955756156490452 0 0 0
203 1 7.986829807367745 10.941402037303032 8.264636270643619 0 0 0
202 1 6.660794420339283 12.295688212850191 6.778841748170627 0 0 0
164 1 9.416470226768 9.397690452863884 6.954709506073809 0 0 0
330 1 12.153934110403876 12.13283249061687 6.628468111985832 0 0 0
296 1 12.072073036222726 9.439834059077622 9.536177125095445 0 0 0
292 1 15.070379625864794 9.470664217938955 6.774772945823604 0 0 0
331 1 13.510894444898748 10.679661731197518 8.007256143179953 0 0 0
458 1 17.84199783593094 12.292047123938703 6.831035113109127 0 0 0
420 1 20.543820322459524 9.611359599868905 6.759032442809979 0 0 0
459 1 19.09196659491078 10.94769910171398 8.153552971250386 0 0 0
71 1 21.626843855649252 13.501650648663812 8.169607732413763 -1 0 0
70 1 3.912354194850638 15.004651386006033 6.834013797555002 0 0 0
197 1 5.357189556674748 13.699837720267464 8.250467180278726 0 0 0
196 1 9.526634820758611 14.9013098791028 6.726365310849192 0 0 0
325 1 10.867112790553943 13.531806341154029 8.08893410019523 0 0 0
324 1 14.93815931301754 14.737142928104126 6.787781728611017 0 0 0
453 1 16.33201438504919 13.412356952271379 8.217399021861423 0 0 0
452 1 20.28747246108393 14.9569201079874 6.729993901135866 0 0 0
108 1 1.3140809065693486 17.732272363770242 6.860965816759232 0 0 0
109 1 2.6739697621265077 16.356593098433454 8.206145213937432 0 0 0
234 1 6.644429660480001 17.75431384013465 6.568738731555015 0 0 0
235 1 8.092944373295484 16.375775567000893 8.042718813549602 0 0 0
362 1 12.119948357388543 17.703085190729514 6.5598720580040775 0 0 0
363 1 13.463859235607773 16.20052773203211 8.018139186556416 0 0 0
490 1 17.67747892124567 17.76587133216925 6.806214324893467 0 0 0
491 1 18.99802704787586 16.477606530474862 7.995275920635737 0 0 0
229 1 5.3755271611915285 19.33187090386628 7.9138586555351935 0 0 0
102 1 3.8596053620648596 20.74499279097881 6.7716477329636815 0 0 0
140 1 8.077380728777205 21.624673799788372 8.14597191202539 0 -1 0
228 1 9.439067223709744 20.24291201803245 6.846691679623159 0 0 0
357 1 10.994827207815918 18.959597869925958 8.20140308441159 0 0 0
356 1 15.008808777047086 20.468104574825148 6.484876009709455 0 0 0
485 1 16.238344209107844 18.98642307000571 8.15548141319792 0 0 0
103 1 21.72294222429827 19.113552578862155 8.100599633038463 -1 0 0
484 1 19.05829480483283 21.64970913053876 8.244347916579185 0 0 0
10 1 20.27040197840089 20.368867224868545 6.733083479119796 -1 -1 0
20 1 2.711070773745647 2.8082662365174453 11.054984345269775 0 0 0
21 1 1.3026502087815257 1.3925323582298141 12.263302718551472 0 0 0
9 1 3.83386382868351 1.5625707006676148 9.4967910623561 0 0 0
144 1 5.374939840169674 0.13939291570536716 10.875263914992535 0 0 0
146 1 8.23315597889814 2.668397603396587 10.733182797248553 0 0 0
147 1 6.718652351266711 1.4949612366218228 12.32043041291031 0 0 0
135 1 9.475760847191577 1.2338889057835258 9.426944616093635 0 0 0
274 1 12.314404989831223 1.27648649791953 12.221058506331321 0 0 0
262 1 14.976420552971287 1.3558381498068697 9.609112130963746 0 0 0
273 1 13.697237439007768 2.7053326002286444 10.919552991143695 0 0 0
402 1 17.83790073333477 1.2892817302577337 11.998810254832994 0 0 0
390 1 20.42981348063115 1.2409183011167266 9.218087281431247 0 0 0
401 1 19.266569188785788 2.696235878602236 10.718036181826774 0 0 0
11 1 1.2488291795807165 4.214540494738892 9.553957519493292 0 0 0
175 1 5.470225150825128 5.410071118265093 10.779528649462423 0 0 0
15 1 4.105655427286818 4.288156825579366 12.239939463572894 0 0 0
137 1 6.935571260788019 4.059361050604041 9.441323292551903 0 0 0
303 1 10.712520026772909 5.498809263096948 10.8449344713724 0 0 0
264 1 12.198170815338345 4.051614715332525 9.399879636441408 0 0 0
141 1 9.58362815398156 3.986476866068599 12.2971254986618 0 0 0
268 1 15.25057944058517 4.0515824415493435 12.220467871103633 0 0 0
392 1 17.722865556208173 4.278212512024094 9.46659017187709 0 0 0
431 1 16.273295462283116 5.573982920266259 11.00390109380844 0 0 0
49 1 0.020760189715776534 5.478411856728435 11.011850008517948 0 0 0
396 1 20.440088394667534 4.048364733512098 12.145624457456895 0 0 0
51 1 2.72185761388149 8.291324362120431 10.916529462954403 0 0 0
40 1 4.0646505242601405 6.856631960457904 9.455643976853986 0 0 0
177 1 8.101576487188195 8.108660895846455 11.147673079003305 0 0 0
178 1 6.646635549039552 6.627286830859649 12.53594174608409 0 0 0
166 1 9.603599946834162 6.985104460719768 9.787465403152463 0 0 0
294 1 15.025580488553393 6.8596340999208225 9.566499249350409 0 0 0
305 1 13.541822203841168 8.146328442573276 10.920809290367991 0 0 0
434 1 17.789370517587415 6.907562764368267 12.112889725762264 0 0 0
422 1 20.61882088315162 6.821971950019695 9.38936747545349 0 0 0
433 1 19.297464276767393 8.194181320091682 10.752070957480477 0 0 0
42 1 1.2562999168562423 9.66465624860582 9.52481273808545 0 0 0
84 1 1.1513516299291986 12.435164636999456 12.261763508407352 0 0 0
72 1 4.097902381333194 12.29369191205708 9.48614106894281 0 0 0
207 1 5.364744597765506 11.17285375277181 10.991888403392675 0 0 0
46 1 3.7649626514631414 9.760775594732001 12.361499423595493 0 0 0
168 1 6.7387114430541155 9.69401290401324 9.789536244719837 0 0 0
210 1 6.856355029565637 12.308573065480859 12.382305460606956 0 0 0
172 1 9.504552591513056 9.593503255221766 12.429578550482518 0 0 0
198 1 9.386671258768011 12.248488254711216 9.610941671042621 0 0 0
335 1 10.734607696888345 10.83812676851251 10.934121382166364 0 0 0
338 1 12.161372960382623 12.058027148769094 12.253473967250152 0 0 0
326 1 14.847449137015586 12.014050401117089 9.425193724924716 0 0 0
300 1 14.993066490262278 9.646806794997318 12.314077842900405 0 0 0
424 1 17.677558329426407 9.420458596542005 9.507950827877705 0 0 0
463 1 16.352987685713877 10.884213504946139 10.8135261403088 0 0 0
466 1 17.648268758030635 12.351123542133932 12.262426123255493 0 0 0
428 1 20.473600723053575 9.517346063081948 12.282716275916275 0 0 0
81 1 21.669609604230875 10.987265443257035 10.918852434135955 -1 0 0
454 1 20.279323992183098 12.288787768755526 9.57534983751651 0 0 0
74 1 1.1284346808936332 14.947157941653531 9.392370425951931 0 0 0
83 1 2.577927394011929 13.606295094746494 10.87591906404994 0 0 0
78 1 4.0213699818603965 14.785779309221686 12.201312914369511 0 0 0
200 1 6.663574001221681 15.161842905842411 9.572773574390084 0 0 0
209 1 8.11489425327919 13.600939573029303 10.90096458413797 0 0 0
328 1 12.16189349613405 14.883315070444162 9.435565401381204 0 0 0
204 1 9.62621767374464 14.90768556366179 12.254092689048097 0 0 0
337 1 13.481738204641587 13.515229761554663 10.947120185777228 0 0 0
332 1 15.062784703408369 15.1570189605532 12.005952426487756 0 0 0
456 1 17.684791571781883 14.914084199774646 9.414178119600088 0 0 0
465 1 19.00169570966982 13.775108813178173 10.896589061105516 0 0 0
460 1 20.475775545571373 15.06455963815539 12.228138475885787 0 0 0
116 1 1.6828330981238573 17.779598652256443 12.090016891724378 0 0 0
104 1 4.196286736276375 17.86456832136462 9.428310491815386 0 0 0
239 1 5.387849242060471 16.32595876372438 11.066386168073537 0 0 0
242 1 6.862391507573324 17.499456709155496 12.245716322032397 0 0 0
230 1 9.499139189201246 17.68098019024178 9.3456891658594 0 0 0
367 1 10.903501544212217 16.30781766778226 10.781262171972708 0 0 0
370 1 12.308448060793214 17.79915852015051 12.10524675325817 0 0 0
358 1 14.804092358745574 17.522645164592674 9.367106630880787 0 0 0
495 1 16.3646066666888 16.376114983483276 10.626931644166724 0 0 0
498 1 17.797527001420896 17.664598919548542 12.122303968959548 0 0 0
113 1 21.718647253469694 16.460762118360538 10.831320345358602 -1 0 0
486 1 20.520178434859535 17.578062149812563 9.392072435565888 0 0 0
106 1 1.313850281204904 20.400801902267535 9.354652768995843 0 0 0
115 1 2.9885580164740917 19.21487546112099 10.782675838881106 0 0 0
110 1 4.225418596369225 20.50298677331153 12.26426073062173 0 0 0
232 1 6.730526898038842 20.336158905012407 9.456651808213225 0 0 0
241 1 8.100669557408967 18.996852533211403 10.812591054165097 0 0 0
271 1 10.944522205794302 21.691939721858606 10.786293157750789 0 -1 0
236 1 9.525435653276235 20.50027156059158 12.194299271693355 0 0 0
360 1 12.288889527224327 20.266081357018088 9.71899734819484 0 0 0
369 1 13.682000949471933 18.890013383333926 10.895483496142118 0 0 0
364 1 14.94354371666169 20.346620361825 12.27694645553572 0 0 0
399 1 16.33407619958014 21.628948582544627 10.928319904645221 0 -1 0
488 1 17.81110243735473 20.23472459654458 9.382832202561156 0 0 0
18 1 21.762016983888216 0.12222011552161216 10.794800524719777 -1 0 0
497 1 19.273792168209898 18.917614371228332 10.806297617091337 0 0 0
492 1 20.45989114042764 20.363348226165844 12.094557164379417 0 0 0
22 1 2.5293603981124866 21.649355318755106 13.517211300650573 0 -1 0
16 1 21.692102995781777 2.872528643500111 13.74512304159878 -1 0 0
17 1 3.8660235330366293 1.345997183301749 14.92186302673581 0 0 0
142 1 5.36018387158437 2.850505733476723 13.646399047232647 0 0 0
143 1 9.571387023130429 1.4221337624018306 15.04826960570453 0 0 0
269 1 10.99153085576715 2.6655743338956595 13.510976559804151 0 0 0
270 1 14.920672993441675 1.3100568675089286 14.84360226187682 0 0 0
397 1 16.508195887568515 2.5281938721618733 13.605373225232247 0 0 0
398 1 20.393438154471614 1.3217736761468664 15.07711831318402 0 0 0
19 1 1.2831988130241103 4.290732794051876 15.065310438951151 0 0 0
53 1 2.645236927474761 5.567860968502368 13.503360437176815 0 0 0
145 1 6.678374453682242 4.10501164944858 15.181603992844904 0 0 0
179 1 8.235953697757491 5.329619620353006 13.647622755801477 0 0 0
272 1 12.120220892386513 4.284276115040914 14.863500680471798 0 0 0
307 1 13.696526403701167 5.441311350799206 13.530144990134803 0 0 0
400 1 17.68751947946084 3.975702449371036 14.978851634315687 0 0 0
435 1 18.97675254348103 5.354527113819913 13.462689239964574 0 0 0
52 1 1.2795698504949544 6.9510519334834635 12.243335688508276 0 0 0
47 1 21.494565582138467 8.19544706226339 13.79150157677698 -1 0 0
48 1 3.8445739798559426 6.831754529347803 14.978919288532154 0 0 0
173 1 5.23328847136262 8.236024575963464 13.629212806972205 0 0 0
306 1 12.249861224926885 6.674796194647753 12.193696439166024 0 0 0
174 1 9.44213987487568 6.821820754788517 15.022230592103078 0 0 0
301 1 10.758223951827574 8.12276849805051 13.610337423222616 0 0 0
302 1 15.08271582740972 6.673886980060064 15.018820731511214 0 0 0
429 1 16.343492850659455 8.133248988152067 13.566465672896038 0 0 0
432 1 17.755035375386083 9.494807374634092 15.013190522055224 0 0 0
430 1 20.23889629328725 6.613376217221831 15.03189209487797 0 0 0
50 1 1.3796223710878046 9.281806314921175 15.05486408319499 0 0 0
85 1 2.232970954785631 10.944069516143992 13.68891976150649 0 0 0
80 1 4.00393467319482 12.118769510749953 14.919736857828694 0 0 0
176 1 6.623458405988457 9.453423035948774 15.09235726737755 0 0 0
211 1 8.135394084190477 10.899838856442692 13.845402433546857 0 0 0
304 1 12.288646350561049 9.385703989521259 14.999692970019241 0 0 0
206 1 9.59083113115286 12.24242344664656 14.934567627669693 0 0 0
339 1 13.628117879766792 10.935320201637495 13.687465306694875 0 0 0
334 1 14.941533810319761 12.458220016680686 15.005532047481053 0 0 0
467 1 19.180230164887757 10.931596338156332 13.647971986602217 0 0 0
462 1 20.47293475097228 12.220887490073666 15.125019153635874 0 0 0
82 1 1.407187161820913 14.818933829326467 15.028437191712841 0 0 0
205 1 5.354462444363246 13.549994431621073 13.613488560076547 0 0 0
208 1 6.729756992664297 14.926740176778353 15.054020617343678 0 0 0
333 1 10.939150908168017 13.529334613321627 13.48618008656038 0 0 0
336 1 12.177109728122057 15.025158854289801 14.782807961617364 0 0 0
461 1 16.369513577391128 13.854838569276492 13.713588329935623 0 0 0
464 1 17.858184154655337 14.94468121533069 14.971427123246022 0 0 0
79 1 21.659435134637462 13.692991965029774 13.658690061462357 -1 0 0
117 1 2.8072848141026223 16.163011077694065 13.496499579775225 0 0 0
112 1 4.039334407861797 17.682524778244805 14.918031998601906 0 0 0
243 1 8.21855013109533 16.30554295165672 13.731587847677554 0 0 0
238 1 9.666406391689714 17.78526195694542 14.88504237203834 0 0 0
366 1 15.095989570757649 17.69144294348598 15.017127086322489 0 0 0
371 1 13.696994192008537 16.32177127884183 13.580736453889703 0 0 0
494 1 20.434227218568452 17.615951440254175 14.988941531897845 0 0 0
499 1 19.121281752411942 16.426722709395243 13.653184264068424 0 0 0
114 1 1.0968823901828904 20.300860809445297 14.81934267016194 0 0 0
111 1 0.07409063980024794 18.80149818462098 13.580527205186408 0 0 0
237 1 5.549640775022364 19.003842721627336 13.632764743366796 0 0 0
148 1 8.159204848469905 0.15331631877509383 13.588103235550419 0 0 0
240 1 6.899891694657885 20.487394360305807 14.9181633048874 0 0 0
365 1 10.968708784719713 19.00004116358408 13.563252964997393 0 0 0
368 1 12.291757815689854 20.29302479829568 15.072326579201341 0 0 0
275 1 13.625971417193515 21.572393119411295 13.523939678642321 0 -1 0
493 1 16.523370279006066 18.95671219976328 13.534334964120763 0 0 0
496 1 17.72211353483868 20.407787465021052 14.950086137179673 0 0 0
403 1 19.105170580135788 0.007014430975217726 13.47754444850407 0 0 0
28 1 2.5352334408381183 2.910284700902581 16.27772014691665 0 0 0
29 1 1.26433070856855 1.3062178500460964 17.703958623987265 0 0 0
26 1 0.015280495400592287 21.58101976393305 16.330683921400265 0 -1 0
152 1 5.243427931395292 21.685930504940014 16.223326704911955 0 -1 0
155 1 6.631914899023762 1.3705181685810008 17.74981384290361 0 0 0
154 1 8.09169551881533 2.6600360095282647 16.361536647923593 0 0 0
282 1 12.345321437898873 1.284772048665802 17.824043509244763 0 0 0
281 1 13.513615458619029 2.7517193209416906 16.239036892848254 0 0 0
410 1 17.55476926722391 1.2819402883934945 17.77145386892851 0 0 0
407 1 16.262676454013466 21.691741739423183 16.300926851706535 0 -1 0
409 1 18.896268596631607 2.580055112918893 16.35382986403059 0 0 0
57 1 21.516755821172907 5.390923091157657 16.45079711365297 -1 0 0
23 1 3.9386587054622915 4.168655671190782 17.718973108880277 0 0 0
183 1 5.2570910997275595 5.522143256441792 16.51248041763766 0 0 0
149 1 9.587255859154938 4.030351350520198 17.600998319759363 0 0 0
311 1 10.8308309736446 5.622958355047804 16.342386836164813 0 0 0
276 1 15.009747974169962 4.056388130720141 17.80200668647226 0 0 0
439 1 16.236497644217565 5.1532788388969415 16.2622676284997 0 0 0
404 1 20.206652242517826 3.9754249656357525 17.767328497593184 0 0 0
60 1 1.2593371551753256 6.668613932258237 18.02711729202724 0 0 0
59 1 2.715921953470347 7.940722909123472 16.65602070279182 0 0 0
185 1 8.054450652278346 8.188622476137866 16.376356352253335 0 0 0
186 1 6.76607185152332 6.680471541436447 17.90230354749429 0 0 0
314 1 12.342927435808473 6.82340752801628 17.719899725340657 0 0 0
313 1 13.68342757948464 7.912921785951579 16.20275452984369 0 0 0
442 1 17.595516356242715 6.5555106179596905 17.699806458043746 0 0 0
441 1 18.92398075199714 8.087014506667996 16.39306691071033 0 0 0
92 1 1.505700528286415 12.180875028007415 17.695712651837066 0 0 0
89 1 0.1838129672088762 10.83004841594455 16.33208335738715 0 0 0
54 1 4.201156957578197 9.419647301427831 17.815463189318365 0 0 0
215 1 5.422489902942277 10.926927427610432 16.424119675332193 0 0 0
180 1 9.587443012562641 9.487633192584413 17.778771767936014 0 0 0
218 1 6.818462791330304 12.450258488039768 17.659121201196236 0 0 0
343 1 11.02302361686069 10.694253805007282 16.329236564162155 0 0 0
346 1 12.23979564123235 12.094342293637228 17.753066469975074 0 0 0
308 1 14.920884637612883 9.248995942397656 17.656405720757643 0 0 0
471 1 16.278002707785475 10.751784153559292 16.38363339822878 0 0 0
474 1 17.52401073898421 12.167653808279889 17.639966900789844 0 0 0
436 1 20.558840470213188 9.414052373279869 17.531812761151553 0 0 0
91 1 2.7038033231668197 13.571472201529192 16.323941805316167 0 0 0
86 1 4.171694568192845 14.877452578471063 17.672680843102643 0 0 0
217 1 8.297531988907139 13.715515033388913 16.38169252079271 0 0 0
212 1 9.57558806660982 15.114388518484601 17.711282660921047 0 0 0
340 1 14.984822493568036 14.907381113659337 17.47110107272958 0 0 0
345 1 13.512211170789564 13.67469958140954 16.2017338205001 0 0 0
468 1 20.384968027861074 14.964239656197375 17.715901737643375 0 0 0
473 1 19.029465139384033 13.614786787134298 16.51538258146106 0 0 0
124 1 1.5012886724375172 17.77393527886387 17.580160693058712 0 0 0
247 1 5.491931003351683 16.3630267195363 16.34899519866855 0 0 0
250 1 6.768735498422582 17.75037974154327 17.50347930123324 0 0 0
375 1 10.979314329042404 16.413173577839217 16.265069265487966 0 0 0
378 1 12.388914637589881 17.65282092004624 17.782660383176612 0 0 0
503 1 16.42194577659478 16.394630914012517 16.41056512815753 0 0 0
506 1 17.576206266805155 17.608224449584664 17.785939683783454 0 0 0
121 1 0.15054929556937424 16.202751560095056 16.507363453356074 0 0 0
123 1 2.7122776429140076 19.093067028855398 16.11544294146804 0 0 0
118 1 3.953686809234984 20.436145934802212 17.602187322285687 0 0 0
249 1 8.343699963050248 19.207580888112645 16.361982161814005 0 0 0
244 1 9.548494280621593 20.47939886490219 17.836301636402194 0 0 0
279 1 10.852318395513977 0.057660680493087736 16.441841988917965 0 0 0
377 1 13.68562678331499 19.006560602449426 16.313456036714538 0 0 0
372 1 14.86043444472903 20.55938308858747 17.60794324493986 0 0 0
505 1 18.996405902467206 18.944380621463548 16.43318762881184 0 0 0
500 1 20.364505325458406 20.40294077295679 17.642847369078346 0 0 0
27 1 2.4919946147860843 2.2429306463244356 0.3167065746002732 0 0 1
24 1 0.03324528701622498 2.6809422831118646 19.179884824542768 0 0 0
128 1 5.395662799775685 21.58185194335257 21.564435883567803 0 -1 -1
25 1 3.9530257655914505 1.2231456421065672 20.48652876382129 0 0 0
150 1 5.198474905211256 2.8091679779727223 19.06957820426345 0 0 0
151 1 9.496127766834078 1.3556743954992383 20.340990397276233 0 0 0
255 1 10.8318986832601 0.08699617040002039 0.02653524283224369 0 0 0
277 1 10.842101839467576 2.7278488954796205 19.102760112234584 0 0 0