LAMMPS (10 Sep 2025)
OMP_NUM_THREADS environment is not set. Defaulting to 1 thread.
  using 1 OpenMP thread(s) per MPI task
Loaded 1 plugins from C:\Users\lmike\AppData\Local\LAMMPS 64-bit 10Sep2025 with GUI\plugins
# LAMMPS input generated from LammpsInputFile with pymatgen v2025.10.7

# STYLES
units metal
atom_style atomic

# SET UP CALCULATION
read_data starting_config.dat
Reading data file ...
  orthogonal box = (0 0 0) to (21.772397 21.772397 21.772397)
  1 by 1 by 1 MPI processor grid
  reading atoms ...
  507 atoms
  read_data CPU = 0.005 seconds
pair_style sw
pair_coeff * * Si.sw Si
Reading sw potential file Si.sw with DATE: 2007-06-11
velocity all create 900 3279141

# CALCULATION PARAMETERS
fix f1 all nvt temp 900.0 900.0 $(100.0*dt)
fix f1 all nvt temp 900.0 900.0 0.10000000000000000555
thermo 100000
thermo_style custom step temp press spcpu cpuremain

# RUN CALC AND WRITE OUTPUTS
dump d1 all custom 100 state_dump id type x y z vx vy vz
run 10000000
Neighbor list info ...
  update: every = 1 steps, delay = 0 steps, check = yes
  max neighbors/atom: 2000, page size: 100000
  master list distance cutoff = 5.77118
  ghost atom cutoff = 5.77118
  binsize = 2.88559, bins = 8 8 8
  1 neighbor lists, perpetual/occasional/extra = 1 0 0
  (1) pair sw, perpetual
      attributes: full, newton on
      pair build: full/bin/atomonly
      stencil: full/bin/3d
      bin: standard
Per MPI rank memory allocation (min/avg/max) = 3.117 | 3.117 | 3.117 Mbytes
   Step          Temp          Press          S/CPU         CPULeft    
         0   900           -509.31443      0              0            
    100000   869.61332     -8148.6909      418.59252      23650.685    
    200000   899.56827     -8000.0521      436.04408      22943.291    
    300000   919.82706     -7885.767       490.35344      21733.334    
    400000   931.33425     -7651.3881      549.8949       20496.429    
    500000   928.78877     -7792.0738      528.41733      19821.983    
    600000   902.34274     -9435.2225      544.17915      19223.396    
    700000   933.56454     -8830.4754      554.43562      18698.166    
    800000   883.26767     -8107.2741      543.28688      18301.717    
    900000   907.23716     -7439.8017      553.35137      17918.615    
   1000000   943.34323     -8116.3039      535.16115      17631.272    
   1100000   937.87313     -8069.1616      533.99747      17365.495    
   1200000   897.97163     -8399.3881      530.25029      17122.507    
   1300000   901.83509     -7488.8056      538.35942      16868.877    
   1400000   884.99115     -8016.2572      537.94128      16625.831    
   1500000   905.68132     -7764.1514      561.58486      16346.056    
   1600000   869.35209     -5329.826       544.46916      16108.382    
   1700000   878.96819     -5909.7585      548.63207      15870.258    
   1800000   870.6198      -7721.6958      539.46361      15652.452    
   1900000   935.87496     -5194.3229      551.86564      15420.301    
   2000000   889.03655     -6805.1191      551.01645      15194.362    
   2100000   911.10796     -6663.4113      537.01804      14990.453    
   2200000   855.38597     -6829.1421      541.84067      14782.276    
   2300000   888.70978     -6168.4636      556.84869      14559.501    
   2400000   898.3767      -6908.909       542.67115      14355.183    
   2500000   891.34919     -6758.6513      563.7397       14131.808    
   2600000   944.69327     -5668.1933      559.3899       13915.895    
   2700000   913.63982     -7140.8687      556.56443      13705.189    
   2800000   944.88284     -5064.1851      554.74567      13498.213    
   2900000   871.59264     -6125.7349      561.35108      13287.887    
   3000000   949.33629     -5941.6852      561.31559      13079.733    
   3100000   891.47561     -5921.5667      564.15624      12871.517    
   3200000   919.98903     -4492.8253      547.98912      12676.35     
   3300000   917.60582     -5947.5607      542.68922      12485.569    
   3400000   908.25511     -7139.3026      569.64571      12278.244    
   3500000   863.1287      -7587.3578      556.24815      12080.588    
   3600000   887.86485     -6713.2348      554.55034      11884.904    
   3700000   805.23946     -8097.608       557.08182      11688.654    
   3800000   868.69462     -7869.3462      557.53447      11493.048    
   3900000   918.12603     -7258.2051      564.43444      11294.846    
   4000000   869.38319     -8048.5541      543.38472      11107.99     
   4100000   924.14427     -7018.8317      553.93207      10916.229    
   4200000   903.90139     -7097.249       550.92815      10726.362    
   4300000   838.68341     -8224.0817      545.41122      10539.318    
   4400000   899.52488     -7512.7511      571.14771      10341.927    
   4500000   859.88967     -7839.5284      553.13052      10152.498    
   4600000   892.27232     -7554.4809      569.02003      9957.5175    
   4700000   875.61282     -7827.8238      559.74957      9766.6382    
   4800000   904.85775     -7168.306       553.21499      9578.5545    
   4900000   938.07458     -7079.0891      556.68303      9389.5976    
   5000000   913.70618     -7554.3665      555.19988      9201.4934    
   5100000   885.94649     -7357.6469      554.64909      9013.8743    
   5200000   945.19059     -7344.1912      547.52828      8828.7014    
   5300000   863.33076     -7559.0149      556.16217      8641.1098    
   5400000   859.91806     -7479.751       556.84854      8453.6178    
   5500000   884.86769     -7140.6105      554.92451      8266.9229    
   5600000   915.57916     -7188.8411      544.07355      8083.2837    
   5700000   860.42248     -7236.3155      544.89403      7899.4301    
   5800000   896.17274     -7759.6034      561.96579      7711.5507    
   5900000   902.31531     -8222.4836      557.57533      7524.9817    
   6000000   871.36797     -6813.5377      549.66261      7340.3747    
   6100000   969.57457     -6391.7454      553.62759      7155.0224    
   6200000   996.71949     -6741.5719      561.1945       6968.3298    
   6300000   960.66066     -6790.74        547.04286      6784.6144    
   6400000   884.81339     -6401.9558      553.28914      6599.7667    
   6500000   936.0846      -7620.8866      541.13038      6417.2322    
   6600000   929.6907      -7520.7625      534.7241       6235.7696    
   6700000   880.74841     -8185.4169      537.28907      6053.7017    
   6800000   889.59351     -6495.0947      547.07424      5869.9479    
   6900000   861.03        -6818.678       553.70486      5685.2387    
   7000000   898.44764     -7533.493       547.03972      5501.5899    
   7100000   880.8055      -7696.7381      566.33054      5315.4216    
   7200000   867.93443     -7660.2063      538.15823      5133.1145    
   7300000   901.45778     -7479.3941      571.39895      4946.7131    
   7400000   917.90865     -7491.5703      546.2992       4763.4446    
   7500000   901.34066     -7307.9693      560.4587       4578.6405    
   7600000   913.02573     -6687.4662      513.28103      4399.1831    
   7700000   963.41948     -6924.904       548.25718      4215.6141    
   7800000   867.43993     -7667.4934      549.90108      4031.9213    
   7900000   921.49848     -8027.1011      564.74588      3847.0045    
   8000000   855.21103     -7687.3371      552.90247      3663.232     
   8100000   854.78111     -7545.4668      544.21514      3480.2087    
   8200000   906.92367     -7062.412       554.16437      3296.4434    
   8300000   962.71518     -6515.8748      547.36888      3113.2168    
   8400000   936.05143     -7914.3807      572.73932      2928.4614    
   8500000   914.37873     -7404.0137      545.5341       2745.4816    
   8600000   937.56729     -7605.9568      536.9594       2562.9707    
   8700000   917.01547     -7087.4041      543.33756      2380.0476    
   8800000   895.84377     -6561.2403      561.30205      2196.2956    
   8900000   885.90744     -6346.4667      567.60362      2012.4249    
   9000000   864.96364     -7274.1261      541.69178      1829.6616    
   9100000   886.08895     -7118.8823      536.5145       1647.0338    
   9200000   808.51336     -7905.8809      574.08328      1463.2637    
   9300000   920.47961     -7164.7853      537.67916      1280.5873    
   9400000   850.12917     -6752.0179      552.73603      1097.5172    
   9500000   899.59691     -7958.1062      558.77896      914.38933    
   9600000   864.33879     -7831.3258      579.16673      731.0858     
   9700000   879.23081     -7537.5571      653.64354      547.39323    
   9800000   875.15626     -7067.6399      691.43407      364.15663    
   9900000   870.28298     -7327.037       789.38891      181.51874    
  10000000   927.57034     -7674.2354      795.63918      0            
Loop time of 18096 on 1 procs for 10000000 steps with 507 atoms

Performance: 47.745 ns/day, 0.503 hours/ns, 552.607 timesteps/s, 280.172 katom-step/s
99.5% CPU use with 1 MPI tasks x 1 OpenMP threads

MPI task timing breakdown:
Section |  min time  |  avg time  |  max time  |%varavg| %total
---------------------------------------------------------------
Pair    | 17814      | 17814      | 17814      |   0.0 | 98.44
Neigh   | 1.9143     | 1.9143     | 1.9143     |   0.0 |  0.01
Comm    | 44.875     | 44.875     | 44.875     |   0.0 |  0.25
Output  | 149.67     | 149.67     | 149.67     |   0.0 |  0.83
Modify  | 68.357     | 68.357     | 68.357     |   0.0 |  0.38
Other   |            | 17.31      |            |       |  0.10

Nlocal:            507 ave         507 max         507 min
Histogram: 1 0 0 0 0 0 0 0 0 0
Nghost:           1416 ave        1416 max        1416 min
Histogram: 1 0 0 0 0 0 0 0 0 0
Neighs:              0 ave           0 max           0 min
Histogram: 1 0 0 0 0 0 0 0 0 0
FullNghs:        17784 ave       17784 max       17784 min
Histogram: 1 0 0 0 0 0 0 0 0 0

Total # of neighbors = 17784
Ave neighs/atom = 35.076923
Neighbor list builds = 2442
Dangerous builds = 0
write_data FINAL_STRUCTURE
System init for write_data ...
Total wall time: 5:01:36
