LAMMPS data file via write_data, version 29 Aug 2024, timestep = 10000000, units = metal

511 atoms
1 atom types

0 21.77481 xlo xhi
0 21.77481 ylo yhi
0 21.77481 zlo zhi

Masses

1 28.085

Atoms # atomic

59 1 1.2114574058101348 1.2874231753162757 1.3119754510826382 0 0 1
136 1 5.419018100299139 2.732542312859911 2.9894358890108914 0 0 0
135 1 6.526956093288356 1.2149442426563746 1.432400326237989 0 0 0
259 1 11.995456061711307 1.0556536481016459 1.5989648269485364 0 0 0
295 1 10.638339942270612 2.528478545384079 2.575167884562727 0 0 0
262 1 13.43883339947269 21.643760398199312 2.846572398604655 0 -1 0
389 1 17.49352043732243 1.0333175659271425 1.2428873672187568 0 0 0
391 1 16.06691637436561 2.5317000858773446 2.6023776745332987 0 0 0
5 1 21.621995876811084 2.49199080567119 2.6960668063708213 -1 0 0
39 1 2.39544634382795 5.138065726682812 2.788327186689207 0 0 0
6 1 3.940970789481144 4.027283055109156 1.4867737327372141 0 0 0
165 1 7.761225939007613 5.599880947744047 2.668821752195079 0 0 0
291 1 9.230982979459645 4.059779903687232 1.325625301601121 0 0 0
385 1 14.65278560249518 4.017662224569162 1.292200928758103 0 0 0
258 1 13.286981460450683 5.198775224040943 2.6877232593603733 0 0 0
384 1 18.86573835600036 5.222243131944149 2.7430409852382063 0 0 0
413 1 16.185018806364898 5.4787938920790635 0.056526854099889334 0 0 1
2 1 20.214161068433967 3.953661236496384 1.3658074067640305 -1 0 0
412 1 21.485973014663006 5.3278938110733565 21.66426442062882 0 0 0
36 1 1.1046213421191309 6.578413557493007 1.242784557560803 0 0 0
37 1 5.218068580650769 8.2349268896971 2.695340276843432 0 0 0
162 1 3.71575259827116 9.556013273435278 1.2318884965457346 0 0 0
133 1 6.467332998213608 6.90180871599582 1.2599567996113246 0 0 0
161 1 12.15781649359273 6.697085722005161 1.266769090484657 0 0 0
294 1 10.626320390128653 8.259149956965274 2.5039623498926735 0 0 0
417 1 17.48918482420286 6.839904434169883 1.4296446682290713 0 0 0
293 1 15.874488428872027 8.224413019776797 2.5130117699830747 0 0 0
29 1 21.45648136417875 7.8547468260217626 2.5736859025549244 -1 0 1
33 1 2.336633702067094 10.913208278706694 2.6001934011240264 0 0 0
67 1 0.9950214191088056 12.134477866494958 1.0634070957630137 0 0 0
200 1 7.913541951535372 10.836731008067556 2.4315225620409233 0 0 0
199 1 6.568138069248891 12.312554784581925 1.1201462202215184 0 0 0
219 1 9.33731287268039 9.350803270671053 1.1003435076195924 0 0 1
325 1 11.956416002863223 12.234658896221392 1.3399613416676603 0 0 0
292 1 14.705790963685818 9.566926374809935 1.393593957986637 0 0 0
288 1 13.262607007221307 10.783781793017953 2.5850715190264 0 0 0
454 1 17.48766033208117 12.172565493983834 1.2423956548002735 0 0 0
451 1 15.994149216199803 10.97725782927637 21.47107195991049 0 0 -1
461 1 18.689107200908097 10.703384721170803 2.6061024084597366 0 0 0
455 1 20.09323260518324 9.2449672801112 1.1055037403160641 0 0 0
104 1 3.992897770283004 14.967676127065063 1.2820955122353277 0 0 0
194 1 5.1825619006453225 13.603153776366474 2.4526703383035366 0 0 0
345 1 9.222307685909161 15.033554682014172 1.2750987082457943 0 0 1
232 1 10.457435850513363 13.541070971498659 2.6062227053555245 0 0 0
378 1 14.626938798374939 14.956762023032434 1.335058328025168 0 0 1
326 1 13.211659809431477 13.601093560401178 21.693012748333214 0 0 -1
449 1 16.166601197848863 13.42492359494545 2.4844025931159472 0 0 0
450 1 21.518713636517223 13.556235126579821 2.6365259597779276 0 0 0
453 1 20.161066645215122 15.110274104458403 1.3216706314529039 0 0 0
103 1 1.1485179433438666 17.545191795600424 1.0763786521287233 0 0 0
108 1 2.495518191229111 16.203930569677766 2.4792983857438196 0 0 0
99 1 6.354192542089921 17.618449325380183 1.4456955131261684 0 0 0
348 1 7.778263266971756 16.157808089399687 2.6713336773545433 0 0 1
355 1 11.937517869908817 17.535062541332476 1.2084628308450265 0 0 0
320 1 13.337937982831702 16.265933317684638 2.505719193523059 0 0 0
448 1 17.25922610199992 17.643078666816766 1.1723291161978036 0 0 0
100 1 18.61523296069796 16.459725968685294 2.659139207159377 -1 0 0
357 1 16.077925944414527 16.123947320481705 21.630708250299705 0 0 -1
93 1 21.54249512133483 16.295621951740834 21.54570690660686 -1 0 0
132 1 2.589637189363882 21.765053535750788 2.732406930443214 0 -1 0
228 1 2.5743800005689117 18.896382458248976 21.678847675962114 0 0 -1
140 1 5.244895229993727 18.940139178428172 2.7494539921145167 0 -1 0
123 1 3.822363149078875 20.36475507053058 1.300268523907415 0 0 1
225 1 7.925497970858838 21.688816763322077 2.795004175008366 0 0 0
253 1 9.15275201375461 20.30820012134273 1.1199409350811276 0 0 1
231 1 7.814619680717856 18.78862084477001 21.685674423352683 0 0 -1
359 1 10.58618077428711 18.976137092736973 2.5723441781013485 0 0 0
395 1 14.539264437441691 20.315202170869245 1.3204150834654664 0 -1 0
380 1 13.264715232617917 18.963894446610475 21.613111517293962 0 0 0
486 1 15.88844700860174 18.866914751411485 2.507981347256874 0 0 0
480 1 18.828353274352768 21.580096777535335 2.6833145177363513 0 0 0
482 1 21.46089502252344 18.868487183242053 2.451501955426737 0 0 0
4 1 20.228953639688072 20.40257246092674 1.204795425048083 -1 -1 0
485 1 18.56746387847427 19.01051872053982 21.741618193366925 0 0 -1
9 1 2.6889643052601335 2.550616167344155 5.5408034612423345 0 0 0
15 1 3.937386650967644 1.1321834336938792 4.203052547691326 0 0 0
105 1 8.013263682972152 2.856308657008409 5.405242815915068 0 1 0
131 1 9.117715298143636 1.3760393565146678 3.9205641860592855 0 0 0
390 1 14.716150289908395 1.39530938452181 3.9779856287088036 0 0 0
393 1 13.267377185246467 2.6066194995900633 5.4958624597225425 0 0 0
423 1 18.786852752960407 2.5218351461025597 5.251821552302221 0 0 0
388 1 20.12470503249053 0.9619489810066095 3.985476793669027 0 0 0
14 1 1.028117042764516 3.5778427191255746 4.2246468178998215 0 0 0
172 1 5.32533355363435 5.440673165543151 5.515378269876131 0 0 0
142 1 6.682817142136718 4.245554090342437 4.289871188847917 0 0 0
269 1 11.752340650257931 3.9506622215429408 4.0690011369562304 0 0 0
163 1 10.651119364539198 5.706280941767974 5.292170868133913 0 0 0
44 1 17.298151141917458 3.9522783360832423 4.023555068344536 -1 0 0
301 1 15.95297317174134 5.433412214923208 5.412186669185424 0 0 0
418 1 21.663264924159215 5.290222498809447 5.3295168789171745 0 0 0
424 1 2.6381676195905888 8.004504501892635 5.253449949416567 1 0 0
40 1 3.856066388230702 6.639031155151852 3.962128991066907 0 0 0
175 1 7.844570406942958 8.27253916845877 5.39966991344084 0 0 0
168 1 9.186706719308257 7.00804741652046 3.79096414119321 0 0 0
289 1 12.022361922368182 9.55907597583722 3.975966847594174 0 0 0
290 1 14.541025904122838 6.769550667562452 4.037719381487039 0 0 0
302 1 13.326109468006576 8.208610454775595 5.399492642696189 0 0 0
264 1 18.571431485069862 8.005307533077504 5.4582800005535805 0 0 0
79 1 20.25273684403649 6.681630732563644 4.147057671112777 -1 0 0
429 1 0.9802837459012874 9.38959218249402 3.951178632013974 1 0 0
204 1 5.135101578044333 10.930754800996732 5.349339982446617 0 0 0
78 1 3.9389686664852586 12.129211950087 3.828033790749548 0 0 0
174 1 6.675225761128701 9.625362691738147 3.964584713820484 0 0 0
206 1 9.296777312386949 12.013184227206699 3.9464449849486956 0 0 0
169 1 10.624903112646525 10.815789556821912 5.521149815737165 0 0 0
322 1 14.700465577815713 12.132002875851095 3.8696539957792284 0 0 0
420 1 17.192487551008647 9.404852882750301 3.8940008854779555 0 0 0
459 1 16.00838605149773 10.749106524500197 5.387585212500186 0 0 0
34 1 21.441126687559706 10.894813917456391 5.2216816355381495 -1 0 0
69 1 19.819550536960456 12.146889510239886 4.0735225674933195 -1 0 0
66 1 1.3532370551113353 14.766083286301415 4.020234035772217 0 0 0
71 1 2.508221800240999 13.450517468621108 5.438349627233525 0 0 0
227 1 6.556615255805252 14.726753731297539 3.9828709806308074 0 0 0
197 1 8.0050940061604 13.404636868851949 5.372254653164048 0 0 0
193 1 11.842634448877488 14.856793014342474 3.850372943236243 0 0 0
328 1 13.366914617351291 13.539076998283248 5.201847676326811 0 0 0
452 1 17.4337947372743 14.885251708901825 3.9254760258905126 0 0 0
462 1 18.591925862045844 13.489357518452287 5.429532144104828 0 0 0
236 1 5.224095582875785 16.116933653056876 5.368033430838552 0 0 0
226 1 3.869521150927324 17.45292391202906 3.9713068048311935 0 0 0
353 1 9.216863824664824 17.532318436507577 4.0451604929374705 0 0 0
333 1 10.618385037837161 16.097190794188368 5.3688943205575095 0 0 0
354 1 14.567039491934873 17.5729802786879 3.9387750543337274 0 0 0
491 1 16.112845908221537 16.292343346434247 5.388348300190386 0 0 0
487 1 21.667010188937997 16.179172586122302 5.238349927581122 0 0 0
493 1 20.127415241186778 17.59117894391883 3.999602873464228 0 0 0
8 1 2.445998082277936 18.757639558836445 5.438890064788552 0 -1 0
386 1 1.1345168190258625 20.12402618397066 3.862214315204546 1 -1 0
3 1 5.150321283000993 21.42918412464866 5.484798698445341 0 -1 0
238 1 7.767410848768292 18.700615535694094 5.308134109948646 0 0 0
363 1 6.596173905453874 20.252260701969306 4.146570329133707 0 0 0
267 1 10.578626387612836 21.67509110404558 5.222581842970866 0 -1 0
263 1 11.85597674887339 20.3331161521593 3.9404965822950406 0 -1 0
356 1 13.119827866905613 19.027468443904407 5.277692350215791 0 0 0
398 1 16.17577992447418 21.646422943364303 5.209757011306899 0 -1 0
481 1 17.38046308127903 20.221367408490245 3.7820295132666875 0 0 0
98 1 21.651073095121074 21.587940465975127 5.382995888493113 -1 0 0
488 1 18.69921025356504 19.041545754144135 5.533559195957229 0 0 0
12 1 1.2455733723817215 1.1671841765364193 6.756207662580907 0 0 0
48 1 5.283724545498104 2.823688917525527 8.066131004209769 0 0 0
110 1 6.479489719142312 1.3804889845027297 6.5896990559202 0 1 0
364 1 11.790114974268603 1.1266854723937412 6.937507022472842 0 1 0
265 1 10.56757801186172 2.8591242281365505 8.169829097475699 0 0 0
361 1 13.37506726227894 21.582048422530296 8.100613696757359 0 0 0
397 1 17.498773524246335 1.2252135668115955 6.642787721410525 0 0 0
396 1 16.243769976777518 2.7099552972262915 8.001158323434337 0 0 0
13 1 21.616877970861093 2.5328358418833283 7.981711764983616 -1 0 0
52 1 2.441544709190275 5.275267521368284 8.044083114403701 0 0 0
47 1 3.954291189017197 4.049486304709887 6.8211172556047615 0 0 0
137 1 7.83763146291869 5.559314388732592 8.322540909411039 0 0 0
299 1 9.199400368463767 4.397156388835766 6.805805530177279 0 0 0
422 1 14.684646438071995 4.042651395490099 6.776599450139108 0 0 0
303 1 13.385626682031322 5.575298093012421 7.904920706131535 0 0 0
430 1 18.866442891070562 5.533994574774785 8.10693832101153 0 0 0
74 1 20.216000793859326 3.9066693514650903 6.659315230151122 -1 0 0
42 1 1.199219344848844 6.716805212989775 6.981195597244099 0 0 0
170 1 5.0974823015432245 7.978424636252674 8.19918397281133 0 0 0
180 1 3.7596817276084704 6.64131370802476 9.486450317262944 0 0 0
35 1 6.615819790690219 6.928557052191544 6.738887417079544 0 0 0
260 1 11.912300073782596 7.060146433049004 6.728206778509656 0 0 0
297 1 10.490012748411441 8.12100778921146 8.148838349972388 0 0 0
296 1 14.537955687335561 9.555193873079066 6.926892080252818 0 0 0
394 1 17.37159750320329 6.6989345883063365 6.756576127531924 0 0 0
425 1 15.917810308820158 8.088604981632798 8.00632438765944 0 0 0
427 1 21.70003612778992 8.281326292994118 8.11093156124757 0 0 0
76 1 2.3514946066600624 10.89189740728299 8.123556873655483 0 0 0
41 1 0.9345939267762486 12.45152142140481 6.836998480224616 0 0 0
46 1 3.6858906939632763 9.536899194128312 6.911882670740903 0 0 0
207 1 6.519845908645142 12.120746592407514 6.748229598262926 0 0 0
208 1 7.744243735932789 10.647624927139693 8.171760837582907 0 0 0
201 1 9.246661282327718 12.183157442758723 9.456214837172897 0 0 0
173 1 9.22934941982376 9.581182351377961 6.732187851463688 0 0 0
331 1 11.970221924138915 12.346650116171428 6.692712795688772 0 0 0
335 1 13.208135974749014 10.968401166286519 8.107409335954646 0 0 0
463 1 17.419222004263435 12.011412061084703 6.720198647648065 0 0 0
80 1 20.202968756661143 9.492918410725672 6.728967536988639 -1 0 0
458 1 18.732800297203962 10.7041094865658 8.242638556631537 0 0 0
77 1 21.377716797897985 13.532487960585433 8.468167908198042 -1 0 0
73 1 3.868559107782735 15.020697016708084 6.832242860751954 0 0 0
202 1 5.20754630022648 13.57666983846691 8.183506939887808 0 0 0
324 1 9.346209433480547 14.991029129308428 6.874763241982066 0 0 0
214 1 6.3393178747128145 15.075878303210015 9.62316062206085 0 0 0
334 1 10.643700829122283 13.38467979213174 8.103626364031147 0 0 0
367 1 14.64300567684379 14.951202536191328 6.692177261001115 0 0 0
457 1 15.912108391911083 13.365713628512802 8.043388791917927 0 0 0
456 1 20.154499825437213 14.894579881356671 6.711779303200434 0 0 0
101 1 1.0566700288997615 17.564775457662144 6.742742898088376 0 0 0
107 1 2.48833308728327 16.44478808324439 8.164355489671475 0 0 0
239 1 6.5184592655987075 17.431593821099685 6.686361586773178 0 0 0
240 1 7.83723689540699 16.272852465154795 8.245552040371242 0 0 0
360 1 11.811789141067932 17.639054965960067 6.621668185745546 0 0 0
235 1 9.241551088623503 17.753720642010954 9.588079968389104 0 0 0
365 1 13.190335950492605 16.190531916471507 7.8712626149876606 0 0 0
494 1 17.585679814373982 17.72480940064554 7.030156415274176 0 0 0
495 1 18.82673176751102 16.20180208502744 8.252850542615757 0 0 0
16 1 2.5299514013467226 21.67497105378471 8.137103897192674 0 -1 0
237 1 5.390330287772678 19.118560268371937 8.110558233867717 0 0 0
234 1 3.7475430118204405 20.23423262048077 6.76779096336367 0 0 0
144 1 8.076266641065212 0.15391744120000084 7.9580460821112515 0 0 0
270 1 9.269214368075037 20.240014367561265 6.412214953705905 0 -1 0
371 1 10.40726409016635 18.896910528012306 8.061402744273693 0 0 0
484 1 14.659738608110866 20.282976200101135 6.512614958246822 0 0 0
489 1 15.889306331822542 19.05691210068524 8.23743119301468 0 0 0
399 1 18.896091659932345 21.62624732140572 7.98083362004048 0 -1 0
111 1 21.512151525686452 18.814494247546342 8.104519778166615 -1 0 0
106 1 20.110946241092723 20.376318597849515 6.676561761890497 -1 0 0
23 1 2.252738493076813 2.5897710627668165 10.66550708524384 0 0 0
20 1 0.9350248788262835 1.2621239235991926 12.226337686357018 0 0 0
143 1 3.744211231297392 1.2640283730001203 9.420820095608189 0 0 0
141 1 7.844764894803274 2.8115051622020135 10.948594671137892 0 0 0
151 1 6.515644073173591 1.2437738267167049 12.141509472357846 0 0 0
139 1 9.2247696785842 1.4276593837256495 9.53116471115127 0 0 0
278 1 12.14802401632261 1.3111563839701996 12.051524071468577 0 0 0
271 1 14.712615011879484 1.2606571465597969 9.452208290856309 0 0 0
277 1 13.41094508715949 2.6320601311459413 10.872468821754943 0 0 0
266 1 17.737070108235326 1.2124214654371333 12.06137847173824 0 0 0
392 1 20.241830934248053 1.1567558719146886 9.400852515204274 0 0 0
406 1 19.086079764664 2.557861049231156 10.628893574873972 0 0 0
431 1 1.0632933690973534 3.913699239834055 9.462676321789337 1 0 0
400 1 21.582237440111676 5.480666952617689 10.765971881210163 0 0 0
22 1 5.168537841671857 5.383014988515863 10.891795806823199 0 0 0
56 1 3.6724446616283424 3.9526064550330577 12.091079898413442 0 0 0
176 1 6.632785253172263 4.0079105003148 9.568651677184702 0 0 0
150 1 9.260006056876483 4.057126509882409 12.399702899737157 0 0 0
268 1 12.236174010553857 4.1117696999132765 9.36399640885996 0 0 0
145 1 10.701872422613976 5.525337766513361 11.074902761961038 0 0 0
272 1 14.865568697270199 3.90510345996999 12.313085626907814 0 0 0
10 1 17.700650621690816 3.860386516742606 9.370328214252401 -1 0 0
435 1 15.922856729794848 5.144192082572695 10.60711771108669 0 0 0
405 1 20.276165016792174 3.946072494490943 12.110894907609998 0 0 0
43 1 2.582714055054762 8.185768770503602 10.824672947220712 0 0 0
434 1 1.2062919684219275 6.879230074341221 12.248556414307181 1 0 0
54 1 3.840659723775918 9.458787706829998 12.236537946545015 0 0 0
177 1 7.988660486862312 7.96607738046897 10.86945158836713 0 0 0
183 1 6.55324260560182 6.517858513692823 12.396609519783341 0 0 0
171 1 9.435396394427947 6.709478533366778 9.554441561640742 0 0 0
307 1 12.202663516872766 6.62032714010814 12.467280927407943 0 0 0
298 1 14.70693636151403 6.768720374944342 9.345376802481846 0 0 0
309 1 13.244605892583271 7.9760632300996495 10.915303989612157 0 0 0
433 1 17.241960571915268 6.669049539003485 12.181943578139062 0 0 0
438 1 18.666436848917467 8.330729751718462 10.981425496674316 0 0 0
437 1 20.101894395083878 7.041884648682396 9.571676338418301 0 0 0
426 1 1.103359039975545 9.634252129680235 9.636344943734157 1 0 0
82 1 1.1450921429291825 12.118421472771427 12.109791686916099 0 0 0
49 1 5.110722597566086 10.732947071688848 10.80626293378248 0 0 0
75 1 3.6564619933301694 12.086898142842385 9.483981106682602 0 0 0
305 1 9.265013531200541 9.5209093242988 12.28656673744169 0 0 0
182 1 6.5597210620831685 9.27978559821902 9.645460474409706 0 0 0
215 1 6.538531066470713 12.231091503230324 12.125071102416765 0 0 0
300 1 11.93840612138938 9.468912031928188 9.521029670561303 0 0 0
339 1 10.58636759728567 10.897650936074573 10.860277756404185 0 0 0
337 1 12.048422798115336 12.229373461861817 12.15309349707582 0 0 0
330 1 14.534158487113698 12.077890697762022 9.581949466749354 0 0 0
467 1 14.476696534443573 9.415423820635755 12.340635884055512 0 0 0
428 1 17.2128639228375 9.446355284711984 9.689153309685052 0 0 0
432 1 15.98680881470874 10.885616645953617 10.973927143221697 0 0 0
84 1 19.756789666050913 12.293739054207757 9.701523126865691 -1 0 0
86 1 21.356252640945304 11.015618342141757 10.83579320966881 -1 0 0
45 1 20.169892458085794 9.752833027818994 12.14140173186017 -1 0 0
112 1 1.1837254925644023 15.000495710443806 9.644742575821091 0 0 0
212 1 2.5533157410342784 13.406646262423736 10.980376061073123 0 0 0
81 1 3.7350878131267478 14.94162874581107 12.253491589236463 0 0 0
203 1 7.696977912278281 13.651590923326017 10.79740686482733 0 0 0
366 1 11.909809834051318 14.954258219723028 9.411011774740407 0 0 0
213 1 9.169342565838356 14.909622460601513 12.280920580758785 0 0 0
341 1 13.32556053426234 13.493742401884198 10.68431456758024 0 0 0
460 1 17.266736602881195 14.90965349819263 9.50484461576486 0 0 0
470 1 18.464904337690427 13.523895334009426 11.017394272014215 0 0 0
469 1 20.08272756038574 14.837045413842283 12.257126437981553 0 0 0
119 1 1.1541616507430672 17.654695254830912 12.301410460429262 0 0 0
244 1 3.9087734032548114 17.793117858847733 9.57613796349542 0 0 0
205 1 5.0909840622251075 16.372922652102503 11.019224962422475 0 0 0
113 1 6.498975183091003 17.811663264902407 12.21068501292828 0 0 0
329 1 10.599108193296244 16.222897613064102 10.887439245254228 0 0 0
332 1 11.925958676379013 17.65260947264441 12.191722654776932 0 0 0
362 1 14.480911479314505 17.555469006300623 9.359227078597504 0 0 0
499 1 15.998625081765674 16.378038372102335 10.65318658341682 0 0 0
502 1 17.353833819416508 17.620900553105898 12.013592700703148 0 0 0
490 1 19.996489181787545 17.61837730814614 9.433435306494607 0 0 0
116 1 21.465978822630987 16.46051584009262 10.927812479617716 -1 0 0
109 1 1.1197499916816325 20.244683641070658 9.450313051041332 0 0 0
118 1 2.458040660765035 19.078184100395685 10.906485369792408 0 0 0
138 1 5.011107370177086 21.74516107913179 10.926097700641506 0 -1 0
24 1 3.6805138207575663 20.47782022205866 12.359578483069651 0 -1 0
246 1 6.535497353613653 20.63213465950918 9.451352878378529 0 0 0
242 1 7.994227162268163 19.160661450915477 10.908676476756273 0 0 0
241 1 9.387908141266214 20.456494148995002 12.36767402788714 0 0 0
275 1 10.618046988386661 0.16900343610416613 10.810450628139414 0 0 0
233 1 11.744907279844234 20.537516099729526 9.432738136370247 0 0 0
375 1 13.2103609065383 19.01103420313725 10.545884037885106 0 0 0
373 1 14.577198086548638 20.407272479130317 11.901684806133083 0 0 0
403 1 17.425228046950547 20.335688821480215 9.351097392227697 0 -1 0
368 1 16.067905938480788 21.749565745123444 10.674423872082741 0 0 0
492 1 21.653635393351173 21.73274587941384 10.69693131491063 0 0 0
501 1 18.66830651228085 19.044537076350156 10.794932147239741 0 0 0
496 1 20.0711405091974 20.4440208704662 12.038468493164293 0 0 0
154 1 3.8639065049030137 1.3219067673499476 14.945597184391861 0 0 0
17 1 5.161030756194687 2.672953074639918 13.474142783487041 0 0 0
147 1 9.247663336474746 1.3721580396980178 14.912584354342851 0 0 0
184 1 10.76818707070946 2.713776232916208 13.523160061994338 0 0 0
401 1 14.814200952869408 1.1569467508293614 14.899434610798217 0 0 0
404 1 16.40019702096536 2.523501575572709 13.557014651752676 0 0 0
28 1 20.089435021067885 1.3970982271398107 15.008695354054503 -1 0 0
18 1 21.345180391016385 2.573014452003742 13.524408677452017 -1 0 0
60 1 1.1406171460368744 3.926191722805967 14.764400319692143 0 0 0
439 1 2.5016144617390492 5.4071219133525625 13.507859258015422 1 0 0
188 1 6.56341351799537 3.948841304324536 15.072902608804137 0 0 0
149 1 7.882851347915715 5.362728701261498 13.704990408188207 0 0 0
273 1 12.03847648657191 3.81325615663199 14.98226597299301 0 0 0
310 1 13.57785824143418 5.312496385134 13.86384148392431 0 0 0
402 1 17.34948568033488 4.085197752781496 14.902018282801162 0 0 0
411 1 18.752045602946257 5.318369121586561 13.422591447093065 0 0 0
51 1 3.931686246627737 6.655933418637419 14.846593254763095 0 0 0
178 1 5.438032049714737 8.040001624736737 13.597035993088118 0 0 0
179 1 9.414996000363695 6.644954903281862 14.929803808210583 0 0 0
308 1 10.823301018513312 8.08616292376773 13.675302261660075 0 0 0
306 1 14.979260870960495 6.777988578532118 15.067530782656755 0 0 0
304 1 16.026627664352194 8.12759138988921 13.554924565630964 0 0 0
50 1 21.50645504007225 8.247974287484551 13.498637845018512 -1 0 0
446 1 20.126238597412193 6.761513501555469 14.613510301550882 0 0 0
53 1 1.0489063775383742 9.454604453309122 15.058106002753902 0 0 0
83 1 2.357010546732723 10.771354028427512 13.521442638206043 0 0 0
91 1 3.6236926717008258 12.386125835896975 14.901619443026181 0 0 0
220 1 6.635648637529099 9.435391835571792 15.199182150658247 0 0 0
181 1 7.9067578340633 10.914879584363847 13.776256185449103 0 0 0
216 1 9.37429903568181 12.254077330357173 15.213882824798892 0 0 0
343 1 12.066023739345106 9.64402361479178 15.109358626354298 0 0 0
342 1 13.388670386449391 11.029404555279678 13.770557189517222 0 0 0
338 1 14.62541124020833 12.358004334810555 15.130342523374981 0 0 0
55 1 17.21986879477016 12.192126915796468 12.389627360269195 -1 0 0
436 1 17.56550793461289 9.570103411808727 14.787273552412284 0 0 0
87 1 18.848386140641498 11.036369543404449 13.569223098937186 -1 0 0
468 1 20.282459446045 12.174936979591594 15.053874901386557 0 0 0
85 1 1.1578056701983022 15.03297022804057 14.74140389076037 0 0 0
210 1 5.245201647707899 13.564565829329842 13.763110554577537 0 0 0
252 1 6.523457223952079 14.977845507704329 14.980247551194447 0 0 0
209 1 10.696416024907714 13.420083346090417 13.48671979750777 0 0 0
340 1 12.005663669029301 14.694805375262431 14.99344890534676 0 0 0
336 1 14.630751919403554 15.007858298096613 12.045939765236424 0 0 0
503 1 15.720434979486786 13.643253906926521 13.634859586177404 0 0 0
471 1 17.378405544284227 14.769530112270147 14.888067447812544 0 0 0
466 1 21.578126946831148 13.606460163762858 13.465937212458899 0 0 0
120 1 2.5671436609435503 16.57257514801002 13.69474277478782 0 0 0
115 1 4.0329949381999075 17.759723551717794 15.031003079593194 0 0 0
247 1 8.03554293742272 16.270779910387507 13.641378037234333 0 0 0
256 1 9.385222854061917 17.657945864377798 15.069623366293019 0 0 0
370 1 13.328600292182617 16.188397181561857 13.487694807009921 0 0 0
381 1 14.77479220513547 17.744229463382123 14.836334085712183 0 0 0
464 1 18.619980816990946 16.15995180684189 13.348766216422753 0 0 0
498 1 20.182401156669183 17.526414782123883 14.71432974722631 0 0 0
19 1 2.2723256904222198 0.05446040227544913 13.694656492022444 0 0 0
117 1 0.8586098189286572 20.45399741230385 14.965663220855955 0 0 0
11 1 5.267425841049585 19.18887142448141 13.76674917576314 0 -1 0
146 1 7.908698498831408 0.11832158434769369 13.637149430951718 0 0 0
148 1 6.596749715761077 20.32015093087648 15.062857056072573 0 -1 0
374 1 10.582694019039732 19.030297513899992 13.689182316566136 0 0 0
369 1 11.95743626967627 20.464405908712326 14.859268386351117 0 0 0
372 1 13.4269732019378 21.747167293216645 13.514309731835116 0 0 0
497 1 16.00005295913983 19.05203901005733 13.398002517899243 0 0 0
500 1 17.4553268556852 20.28846518071395 14.747709260619423 0 0 0
407 1 18.918284616293416 21.683381803520454 13.614899760781011 0 -1 0
114 1 21.42251181347663 19.023345355686835 13.48361324438686 -1 0 0
125 1 1.2204199201548849 1.2326335714671757 17.563078869668438 0 1 0
21 1 2.5769501477660044 2.707719904727627 16.203089086682755 0 0 0
245 1 5.15346675032279 21.596127899927527 16.453617456243627 0 0 0
27 1 6.56582457073487 1.0490677440446134 17.76028987883217 0 0 0
159 1 8.105424174471624 2.5386294687273074 16.388882952578268 0 0 0
286 1 12.046839281079919 1.2237389892834778 17.784878774675903 0 0 0
276 1 13.362875133152462 2.5337071854795443 16.421255671833624 0 0 0
279 1 17.53954347625784 1.0279805533582573 17.693977577707944 0 0 0
31 1 18.71014651805876 2.590325922511642 16.402393885570262 -1 0 0
25 1 3.792691945454719 4.081443175298667 17.741886556969682 0 0 0
30 1 5.283005538061794 5.3283220302665475 16.35114444617967 0 0 0
158 1 9.283952690072493 3.933583983064511 17.85577332165248 0 0 0
315 1 10.689759135629417 5.302848394492693 16.333081979630546 0 0 0
319 1 14.600126410753582 3.7865829443488086 17.828718532331283 0 0 0
280 1 15.947363616966438 5.134850738799406 16.495779342151838 0 0 0
63 1 21.287156375982278 5.223856697230614 16.119083692685738 -1 0 0
408 1 20.202768130339766 3.9139534911357314 17.59895808041889 0 0 0
88 1 2.4036630736673414 8.009489972222633 16.278369851893924 0 0 0
447 1 0.968352813001476 6.488373998679755 17.621845691960473 1 0 0
191 1 6.547758625589141 6.76821910266941 17.787623364250273 0 0 0
190 1 8.170287166832663 8.065316423055725 16.397633186326857 0 0 0
313 1 12.1923363346711 6.565081541679831 17.74702023063504 0 0 0
311 1 13.59631755621723 8.080449515772013 16.51493768699027 0 0 0
419 1 17.366370478542606 6.565703080304204 17.60138871700446 0 0 -1
312 1 18.729444560646275 7.911467925779308 16.272125800298184 0 0 0
445 1 1.1152818424359647 12.15344813064496 17.64806862546758 1 0 0
62 1 3.88268049778367 9.410591562088918 17.517911194351452 0 0 0
57 1 5.097992845626892 10.948654507405369 16.246980255946696 0 0 0
223 1 6.665118995918622 12.259503494485921 17.614694186221755 0 0 0
185 1 9.560474187416448 9.522702026980266 17.850464254574284 0 0 0
211 1 10.966843842918678 11.064917569433666 16.680741670528807 0 0 0
350 1 13.226171211055883 11.244415431017488 18.65214621110824 0 0 0
347 1 14.968422540055919 9.728656939083226 17.702970161739458 0 0 0
349 1 16.29554166435709 10.995469135342383 16.10971666067139 0 0 0
473 1 17.511188327938026 12.366813529778574 17.56083157218787 0 0 0
441 1 19.795163917777305 9.349436775246874 17.558516437455797 0 0 0
444 1 21.348040475711464 10.741841385935379 16.35464699187799 0 0 0
92 1 2.4345482940873096 13.624453656993401 16.379290173465808 0 0 0
440 1 3.9528212101911206 14.839105602421412 17.652606793279727 1 0 0
222 1 8.029597472488453 13.857720652934807 16.172209562967286 0 0 0
217 1 9.488984350712967 14.89494182642019 17.74140293359403 0 0 0
344 1 12.727042184818767 13.257362903853217 16.653349117133622 0 0 0
507 1 14.4786304466001 15.067463826899038 17.465663535597002 0 0 0
475 1 18.990639428990484 13.612544270092219 16.213217989431232 0 0 0
124 1 20.243504519660632 14.943751434033008 17.6041898648554 -1 0 0
127 1 1.277364643541847 17.445225492553554 17.688389233272982 0 0 0
89 1 5.306346358254768 16.340566362960747 16.44070992118417 0 0 0
221 1 6.631189676005806 17.578157407002745 17.588936281884642 0 0 0
248 1 10.857508681674556 16.314764931007144 16.301063916424898 0 0 0
243 1 12.048012444490853 17.920811419592127 17.542647297419457 0 0 0
465 1 16.176267259205243 16.24122657388013 16.229953589980212 0 0 0
510 1 17.63192791176382 17.49829056025447 17.6999577877771 0 0 0
477 1 21.5103549118741 16.293436974642066 16.160902455441782 0 0 0
126 1 2.370090741032776 19.05378445205286 16.301042413105534 0 0 0
250 1 3.782616706379578 20.16239807390815 17.84526744021932 0 0 0
152 1 7.937139161623658 19.004809779800656 16.449422793257977 0 -1 0
254 1 9.192939922348266 20.47032748830923 17.718801558780864 0 0 0
283 1 10.683603375560581 21.76738897850931 16.27473604127277 0 -1 0
382 1 13.301504079536715 19.019620670530756 16.08747470016979 0 0 0
376 1 14.676860838477698 20.17141224937946 17.62166958032107 0 0 0
285 1 16.153524666807854 21.48692195871598 16.210127232373416 0 -1 0
32 1 21.496476303831376 0.12275850255775467 16.309925078736534 -1 0 0
509 1 18.800929011517102 18.89323515767552 16.19441489921722 0 0 0
504 1 20.377810769859646 20.23389793258883 17.548148731236786 0 0 0
130 1 2.4845471825065175 2.8590535922648264 0.18448360417210624 0 0 0
187 1 5.1589434452381315 2.6880423118100505 19.065087935263023 0 0 0
121 1 3.7380723962021034 1.2795341450151145 20.505691439549594 0 1 0
129 1 7.730631480213118 2.777764228003398 0.1552354587390603 0 0 0
281 1 9.244409409441243 1.4523795884882622 20.539306071564777 0 0 0
153 1 10.816490709379748 2.5870361386515976 19.171522786090097 0 0 0
282 1 13.264448368137948 2.495363435896187 0.2160794950570235 0 0 1
352 1 14.653933980333639 1.1356053275380829 20.516126007413718 0 1 -1
409 1 16.251353230466147 2.445991634801305 19.167419690020015 0 0 0
387 1 15.933329079910807 21.531165319294356 21.770945147372228 0 -1 -1
442 1 18.930482331011795 2.285870675626273 21.685819098888597 0 0 0
7 1 21.72244523404542 21.598070538157984 21.69662001118489 -1 -1 -1
415 1 21.688703959920797 2.701579017370646 18.870143106953787 0 0 0
410 1 20.485661172128857 1.1717673620175602 20.31126273552968 0 0 0
64 1 0.9956145149167921 3.895572617825393 20.400345737960365 0 0 0
26 1 2.3329708310986494 5.374769803166102 19.194709874878367 0 0 0