LAMMPS data file via write_data, version 10 Sep 2025, timestep = 10000000, units = metal

511 atoms
1 atom types

0 21.800341 xlo xhi
0 21.800341 ylo yhi
0 21.800341 zlo zhi

Masses

1 28.085

Atoms # atomic

7 1 1.5687061772861914 1.5168974244864128 0.797105191399744 0 0 0
4 1 2.9831179891000197 0.3405974558674543 2.417603641032071 0 0 0
15 1 0.1689668605321151 2.927501859213449 2.213438871696267 0 0 0
130 1 5.406377543497296 2.981041227724177 2.5093720573192324 0 0 0
40 1 6.756042519444777 1.5164497925075064 1.0023309631908468 0 0 0
97 1 8.338954035685985 0.2978070577798865 2.2416995507953255 0 1 0
258 1 11.288856829340329 3.200704002786092 2.4800128449409833 0 0 0
257 1 12.445474744332255 1.6704802880133864 1.0073319129992442 0 0 0
129 1 13.703693129195198 0.34673829180095705 2.513841168403058 0 0 0
387 1 18.12628364828893 1.6372515014710176 0.9869065115124974 0 0 0
261 1 16.697217374969448 3.1563082969229566 2.217239745741167 0 0 0
386 1 19.451823187675675 0.2659851318373683 2.624453418110405 0 0 0
35 1 2.74393812775864 5.806358820918542 2.48230212876818 0 0 0
162 1 4.041880002160184 4.306084472624861 1.3562454879769046 0 0 0
165 1 8.429779408010903 5.608802950633072 2.4875946754852896 0 0 0
189 1 9.729109891344052 4.332205651201751 1.0479328308629166 0 0 1
166 1 13.996742587343556 5.629197566257897 2.2172906791482854 0 0 0
230 1 15.319739630371425 4.315914923849158 0.7932085796966355 0 1 0
425 1 19.241065554595576 5.7654909997058885 2.396094988442631 0 0 0
418 1 20.557487821930213 4.416508258065773 1.0347290133825289 0 0 0
34 1 1.3074989224973173 6.873287371253224 0.939567073151691 0 0 0
421 1 0.34232713148099947 8.444112005296574 2.380207028575401 1 0 0
204 1 5.617671614199869 8.334222770387168 2.3850507828833805 0 0 0
167 1 7.136628978424433 6.8540598587771475 1.1893352158567587 0 0 0
161 1 11.09029098038145 8.409639824345815 2.459027298321587 0 0 0
1 1 12.37134929584364 6.863644961633981 0.9655047268880241 0 0 0
295 1 17.814717830078155 7.024719422619282 0.7587016702874461 0 0 0
316 1 16.550301835685367 8.381980015968786 2.341509329715028 0 0 1
33 1 3.0562430842719794 11.267410088687628 2.3931411592189975 0 0 0
104 1 1.7343036935791325 12.665205548821659 1.095757792378186 0 0 0
38 1 4.28116695202437 9.776928235131216 1.037831740943308 0 0 0
223 1 8.338263467592975 10.93068945872636 2.429269304425588 0 0 1
321 1 7.043743313064022 12.436122944742207 1.169223245871168 0 0 0
323 1 9.62785970076016 9.618868979558973 1.075719947187043 0 0 0
339 1 13.657916704251805 11.033787594835674 2.319021174033295 0 0 0
313 1 15.299107788182807 9.641991246451445 1.0015305544012223 0 0 1
450 1 19.14367333200336 11.12311117426441 2.4147491295338614 0 0 0
419 1 20.636803132424266 9.652471154022079 0.9528222538626678 0 0 0
41 1 0.36563748616542274 14.189001084712007 2.3656491234716146 0 0 0
324 1 5.738075515488787 13.900808101758342 2.399766864499726 0 0 0
250 1 4.407015649751199 15.357345784582016 1.0232155366233897 0 0 1
293 1 12.489191423475276 12.543585936211455 0.9281290571712517 0 0 0
363 1 11.004514810426084 13.689823936101774 2.341277217011047 0 0 0
355 1 9.696163818661782 15.109388825530475 0.9440097751990778 0 0 0
449 1 15.29796726939173 15.212851373780191 0.9489897099354634 0 0 0
479 1 17.638560664198707 12.245766799536598 0.9991819972637157 0 0 1
333 1 16.531179139419574 13.846075478369173 2.366339904942396 0 0 0
72 1 20.462124859491972 15.186776806527892 0.889572413314685 -1 0 0
103 1 1.360150706556996 17.88912524698154 1.0034523070219281 0 0 0
110 1 3.1127948242530525 16.76388563073933 2.3105039551100095 0 0 0
197 1 8.584305206242883 16.623295304969776 2.279687898674189 0 0 0
227 1 6.960539058652463 17.726110169730603 1.2115060205893997 0 0 0
348 1 12.556901293831473 17.635806124104086 1.2141124930408493 0 0 1
353 1 13.885653078986348 16.431874384418737 2.554101932900888 0 0 0
448 1 17.944996794366368 17.949402718028644 0.8666273961502055 0 0 0
100 1 19.23123763525767 16.64974681995917 2.2785033707154203 -1 0 0
93 1 0.252334941071523 19.47255630931767 2.175764059425639 0 0 1
2 1 4.312265296042657 20.71992205378399 1.0465264290204157 0 -1 0
136 1 5.887654506679809 19.545496301138073 2.371136691962597 0 -1 0
251 1 9.75643387178278 20.482003632655495 1.1040637427553255 0 0 1
232 1 11.26530712976912 19.196776320353468 2.618975408897218 0 0 0
505 1 14.886884635741113 20.74440863874519 0.8066182562825717 0 0 1
486 1 16.30604054015666 19.286065146259862 2.1765922223736296 0 0 0
508 1 20.669322338490144 20.648072769121903 0.8991440193295706 0 0 1
172 1 2.92654357397589 3.076758095505287 5.2047667283687575 0 0 0
397 1 0.48303532580523073 0.3097026251230397 5.0804282788159805 1 0 0
107 1 4.439699263868431 1.5066469222744843 4.065567360100737 0 1 0
229 1 5.659397776804178 0.09680140485180884 5.491098640134224 0 1 0
168 1 8.122214769916086 2.928237757229991 5.116495167212146 0 0 0
131 1 9.525142358535241 1.7570186544233628 3.5945526379145982 0 0 0
356 1 10.874837829508376 0.2375259914625244 4.895623990004436 0 1 0
423 1 15.200637926014368 1.9138941963167166 3.4988933002398364 0 0 0
267 1 13.815892696150598 2.928557323688684 4.957639539808498 0 0 0
269 1 16.23538867473372 0.14631419178339117 4.743171574947253 0 0 0
14 1 20.89373822888306 1.709982166720501 3.769912470128532 -1 0 0
430 1 19.187806908826254 2.8734772679147675 5.138359734695148 0 0 0
44 1 1.429046994567173 4.3357841604583465 3.6879829690728445 0 0 0
13 1 0.2205674260361213 5.85409982614742 5.283624872326517 0 0 0
170 1 5.229935576363508 5.618243980763452 5.163956317482065 0 0 0
37 1 6.830945090195255 4.318225932092159 3.854130817588368 0 0 0
134 1 11.09453495628296 5.5769763895802935 5.183369171008217 0 0 0
284 1 12.509366972501844 4.47823864757134 3.7260310026277437 0 0 1
298 1 18.01546564685708 4.282804328252713 3.8029519454835987 0 0 0
264 1 16.41038128396055 5.592476749130274 4.96325734991371 0 0 0
5 1 3.097524840415528 8.695665720962618 5.274787814532641 0 0 0
59 1 4.02594141210454 7.179373760820036 3.7703279296076024 0 0 1
175 1 8.221597269904056 8.373275271764062 5.217973467774455 0 0 0
289 1 9.698009486135076 7.132482291750894 4.007571187498336 0 0 0
288 1 13.877571790104424 8.25966090900683 5.103127753783445 0 0 0
299 1 15.09336570398396 7.007294775632302 3.5371316598495217 0 0 0
420 1 19.173053614234156 8.477589500474528 4.9159321139995695 0 0 0
385 1 20.742994112406027 6.962848077184228 3.6185775166252903 0 0 0
68 1 1.5762628367592624 9.86498788593702 3.756850363306186 0 0 0
111 1 0.06710191736013726 11.3889220633805 4.9867221655564755 0 0 0
174 1 5.663687780894626 11.213432051882823 5.213727887817548 0 0 0
65 1 4.330432818967308 12.706540143583346 3.781617910165693 0 0 0
294 1 6.875062508668853 9.638535097918167 3.7846978077002724 0 0 0
195 1 11.075658507997241 10.832426593830201 5.1882586412077725 0 0 0
327 1 12.546246594560102 9.494351895666428 3.696877522074685 0 0 0
455 1 17.782214141797127 9.902932647342118 3.7619592306516836 0 0 0
495 1 16.214237927435292 11.062327574361229 5.188857172919661 0 0 0
66 1 20.60417532832858 12.624772161756432 3.526893311101387 -1 0 0
75 1 1.6086621357490551 15.570207759839125 3.742968810860171 0 0 0
42 1 2.9468042076188894 14.030378873079332 4.950134450669517 0 0 0
329 1 8.269745113642262 13.72134206242392 5.337533634356291 0 0 0
207 1 7.242424610754634 15.18842192940102 3.6798804801693157 0 0 0
206 1 9.686919543481464 12.280258732411184 3.79864522395822 0 0 0
325 1 14.97237987008496 12.474356400831217 3.71931809879516 0 0 0
335 1 12.321242765699996 14.92834834701404 3.8583099337137967 0 0 0
481 1 13.727043701653944 13.666759315504429 5.229056431051214 0 0 0
101 1 17.932428825836627 15.201666044718259 3.78799240356404 -1 0 0
452 1 19.102994026143428 13.760603142703856 5.173313594891163 0 0 0
67 1 0.22206607837953007 16.68749494295226 5.030519766456101 0 0 0
99 1 5.694473902845328 16.465317207081664 5.030848159166091 0 0 0
12 1 4.555679112957989 18.032179047357417 3.6822208099436806 0 -1 0
366 1 9.855507445187586 17.80944317865306 3.735512749271009 0 0 0
461 1 11.11105320688704 16.25070904433385 5.133051622364771 0 0 0
358 1 15.176896819968327 17.923321747795057 3.750568043575611 0 0 0
494 1 16.48763342847734 16.550757693645604 5.007747744106502 0 0 0
108 1 20.78524500565352 17.767443702899104 3.4033997743102766 -1 0 0
3 1 1.629684062926811 20.74962960298497 3.537552758501333 0 -1 0
488 1 2.927035292581414 19.319549538956988 4.9774038695688345 1 0 0
8 1 4.178484495591641 20.48423356698985 6.604883229833592 0 -1 0
354 1 8.427721822419006 19.176434672925048 4.950303993385283 0 0 0
226 1 7.102617776648217 20.6860481107535 3.6739751055251904 0 0 0
352 1 12.434865068286289 20.706015020551952 3.746635436638605 0 0 0
365 1 13.81080830602913 19.061667987223906 4.944906072713656 0 0 0
391 1 18.024387514096755 20.780707643914475 3.762108368021679 0 -1 0
484 1 19.336299376382243 19.034448344486762 5.002479323998071 0 0 0
392 1 1.5901719356384687 1.6088755727442552 6.537882781116749 1 0 0
247 1 2.882852806420166 0.27082254795852345 7.967153944691255 0 1 0
426 1 0.2476859631756374 2.8574892922570254 7.666586055735645 1 0 0
138 1 4.169823251810097 1.5414367029287912 9.384072089779677 0 0 0
141 1 5.522517290442785 3.1013818935866544 8.092574683519558 0 0 0
105 1 6.926922581945658 1.7218112379156303 6.720293213235197 0 1 0
135 1 8.355099438571806 0.14064950015406755 7.84798204274663 0 0 0
364 1 11.215383108883158 2.7935624149545837 7.724616450226488 0 1 0
145 1 9.694019843069617 1.5268746868510759 9.103435949773967 0 0 0
263 1 12.500355842076743 1.53702758126487 6.168332882203608 0 0 0
265 1 13.76375532377598 0.13469125915948427 7.541315141763311 0 0 0
388 1 15.214559935385042 1.6996575587033562 8.93224721838934 0 0 0
395 1 17.684324389465303 1.3262388036296684 6.229138943126871 0 0 0
290 1 16.518373053016944 2.8214439203473476 7.552532419598041 0 0 0
20 1 20.454415219568546 1.621984942173449 9.01314932778954 -1 0 0
399 1 19.144540887350594 0.12987986561873538 7.573378123393973 0 0 0
133 1 1.8116784728602606 4.507414617084332 8.862758529144719 0 0 0
9 1 3.854681212037531 4.595751841808087 6.899596590078206 0 0 0
331 1 8.635541999187035 5.853011361850813 7.602588303871253 0 0 0
11 1 7.075166521960395 4.47574428007796 9.204069451424335 0 0 0
142 1 9.68248100081023 4.035240132703405 6.42825131009234 0 0 0
137 1 12.519199370616548 4.228390736780257 9.084838943188618 0 0 0
270 1 15.14032020778388 4.203758083151067 6.325562632024752 0 0 0
268 1 13.965640857132758 5.4685117973364585 7.700760960927153 0 0 0
436 1 18.018028873346097 4.201535386496428 8.874634988320826 0 0 0
424 1 20.577721582589444 4.352775283030865 6.389912853847478 0 0 0
435 1 19.220494199600413 5.854767087691619 7.628510482740112 0 0 0
76 1 2.095263750245869 7.003319294155348 6.592554318701704 0 0 0
431 1 0.10485108601075513 8.310257363312896 7.352304959996787 1 0 0
169 1 5.50651171944623 8.07965626427122 7.917032331759662 0 0 0
176 1 3.6635110452263486 6.88849239823499 8.6677675502511 0 0 0
182 1 6.875621480421981 6.872802433721653 6.495272254771531 0 0 0
301 1 11.100805000176052 8.695585760337185 7.768393564039407 0 0 0
297 1 9.957183474699999 7.389040016615733 9.1802486421598 0 0 0
163 1 12.566405121578898 7.072612711410599 6.5475609746998 0 0 0
292 1 15.25901186704645 6.739207335045259 9.116228868227939 0 0 0
417 1 17.784540549526664 7.316535745985216 6.3076560419915255 0 0 0
300 1 16.56398184197201 8.555310735876828 7.95638815454344 0 0 0
47 1 20.625254997350467 7.093789045032706 9.126971624121621 -1 0 0
212 1 1.2172315109084961 9.588334847790136 9.037543941918305 0 0 0
46 1 2.666897458379635 11.046142839416913 7.787730296246808 0 0 0
48 1 4.449757704832325 9.786964974656346 6.775707850598706 0 0 0
208 1 8.14454411808632 11.030092472713784 8.091000109146057 0 0 0
49 1 7.157583165143562 9.371117057266732 9.261028334634187 0 0 0
203 1 9.562542199807057 9.800838579598725 6.54935559864576 0 0 0
457 1 15.00781968491946 9.647808047363293 6.597338881269648 0 0 0
302 1 12.551996344565174 9.765260535325078 9.297370487703379 0 0 0
309 1 13.950143193013202 11.080091434673534 7.905938776026929 0 0 0
330 1 17.72573482055166 12.418893415337399 6.576417941858031 0 0 0
459 1 18.088505744521036 9.998915347197547 9.304175435086838 0 0 0
79 1 20.55922032268234 9.82526817196755 6.243545330368874 -1 0 0
437 1 19.284727407322045 11.171026791746115 7.820418048859798 0 0 0
80 1 1.6832477195557562 12.655865595860071 6.2709910951547245 0 0 0
466 1 0.16017453566873674 14.033873643776163 7.616085480783738 1 0 0
69 1 1.7154011764757715 15.450000512475334 8.810133467764938 0 0 0
78 1 4.216228420938608 15.277076603069817 6.375850465361769 0 0 0
86 1 5.4313104784820485 14.132763469847763 8.05370087777463 0 0 0
45 1 4.276949286424535 12.30656053548814 9.151189757651101 0 0 0
200 1 6.8672692544628 12.559087345932102 6.74676757520042 0 0 0
240 1 6.8707470279305065 15.304287554228726 9.559792894575349 0 0 0
337 1 9.610239520932726 12.463886980811958 9.31603330726822 0 0 0
334 1 12.396005110885666 12.224785773375636 6.674008649099142 0 0 0
201 1 9.69233762137041 15.04300324341215 6.813097332867535 0 0 0
493 1 10.992159629929501 13.661388428479189 8.033076194263717 0 0 0
465 1 12.249698652166163 15.090667266462074 9.177589092489281 0 0 0
341 1 15.25362372899329 12.5050947159886 9.085537999115212 0 0 0
357 1 14.94959916863855 15.175192255074599 6.475008700672126 0 0 0
328 1 16.608029731099375 14.004736499897852 7.619289908666554 0 0 0
490 1 18.005875690853177 15.457681086264131 9.122853891073346 0 0 0
114 1 20.62024607937012 15.234244485073344 6.330468934826667 -1 0 0
106 1 1.681257288099971 17.966036596765033 6.37318853977612 0 0 0
84 1 3.168838187798224 17.02009144101867 7.54550209558695 0 0 0
143 1 4.362124996690955 17.99556863460383 9.127027397078479 0 -1 0
225 1 6.859389634966879 17.87983165300636 6.436438560403014 0 0 0
371 1 8.17270008303317 16.567495823278428 8.103394375700017 0 0 0
342 1 9.633776413981517 17.899194261221346 9.239755820615176 0 0 0
235 1 12.482754387602748 17.78042084922347 6.505256728071297 0 0 0
296 1 13.835945153187438 16.618269950086 8.062214228134577 0 0 0
470 1 15.114979437401406 18.042786072077124 9.289227953039463 0 0 0
373 1 17.900410864176308 17.853982026599343 6.45354899959162 0 0 0
367 1 19.43420077043372 16.69992934190349 7.64082950980569 0 0 0
112 1 20.414977738546604 18.170362875869937 9.06355795556617 -1 0 0
234 1 1.4327769239585566 20.610233821744345 9.171608791275693 0 0 0
73 1 0.3892338564158838 19.43128509328732 7.864137703653603 0 0 0
236 1 5.480759683535993 19.32829938908223 7.808781454520271 0 0 0
140 1 6.979391412005401 20.777368549726848 9.23400630405826 0 -1 0
238 1 9.72626296016856 20.645836788546873 6.412523444709107 0 0 0
374 1 11.062379536851541 19.143306768604084 7.722639429472964 0 0 0
393 1 12.400584739045303 20.575237043966464 9.11598989118859 0 -1 0
360 1 15.166284024049444 20.46875459562389 6.2996852542639425 0 0 0
502 1 16.556356659777663 19.43693960489947 7.797495993601469 0 0 0
109 1 17.952790534511113 20.719393479262667 9.047528802477153 -1 0 0
482 1 20.733526595817867 20.72809215875313 6.307169195897564 0 0 0
31 1 1.3232888101254856 1.409799736874361 11.913766099803015 0 0 0
23 1 21.66948700993508 0.26974540866966007 10.43118601840547 -1 0 0
10 1 2.749940356969459 2.869267792623128 10.66349396231811 0 0 0
237 1 5.52707445680351 0.17110001453319673 10.77811317973841 0 1 0
144 1 6.756726085999259 1.7166291501786146 11.90676410192321 0 0 0
150 1 8.365571591119636 2.95476720713256 10.510008647562751 0 0 0
273 1 10.742695570331474 21.700023474209964 10.402362565477187 0 -1 0
278 1 12.127672955350427 1.4084840755359147 11.694278969838509 0 0 0
401 1 13.70950595926165 2.8809457009988284 10.488936692563035 0 0 0
496 1 17.86385082249997 1.502610625922975 11.859125406582205 0 1 0
405 1 16.33323971565315 0.28556733594521533 10.345613881237169 0 0 0
398 1 19.24652945389436 2.9155577811256346 10.41707701102902 0 0 0
22 1 0.17779394989502204 5.685630152586788 10.42637428246821 0 0 0
178 1 5.452463742755121 5.983003379782361 10.296841694479413 0 0 0
184 1 4.162847753987121 4.309449877128403 11.916069054618609 0 0 0
307 1 9.68311237065999 4.386093002649938 11.872733936288503 0 0 0
139 1 11.216279277807166 5.830972375121916 10.311787607385124 0 0 0
272 1 15.132897307547891 4.174392990802713 11.935027486449906 0 0 0
406 1 16.682939147266282 5.524696100359014 10.422092657366154 0 0 0
429 1 20.644230545597175 4.085588987901792 11.7077220423909 0 0 0
50 1 1.4200564112245022 7.061274674757682 11.849290924322009 0 0 0
181 1 2.706158580993204 8.225265337322922 10.368823695993205 0 0 0
190 1 6.940538326270936 7.059603197720361 11.85903484030245 0 0 0
171 1 8.419324145688506 8.24151902246963 10.678202837011652 0 0 0
433 1 12.439058673033344 6.902881729294836 11.898975494167415 0 0 0
303 1 14.052474254022332 8.330787940002246 10.545167666053281 0 0 0
52 1 17.924045191770446 7.132833763285283 11.86409689000844 -1 0 0
427 1 19.17546661592756 8.52814581683665 10.392604027866025 0 0 0
458 1 0.19268417618496336 11.35047740301238 10.283901512652717 1 0 0
503 1 1.5398854041598486 12.612212317522259 11.607434935540043 1 0 0
214 1 5.50252347661583 10.812310755915444 10.528335711036348 0 0 0
216 1 4.173001254079595 9.556056540667711 11.874585480542605 0 0 0
305 1 9.707018597552405 9.771166310425592 11.784903610078382 0 0 0
491 1 11.160756382597267 11.095011679305419 10.477344906516386 0 0 0
177 1 15.196651237415727 9.95001685837573 11.929307818557392 0 0 0
462 1 16.650992138557186 11.39743530772775 10.725580680541256 0 0 0
428 1 18.038191401431906 12.701147331407185 12.157212602402383 0 0 0
53 1 20.562743326909455 10.11245655893999 11.740149588819502 -1 0 0
463 1 2.8850565304779594 14.01874704665793 10.285382728173005 1 0 0
362 1 4.239967087291857 14.930681180437738 11.96057830700065 1 0 0
215 1 6.871910392214368 12.26855502693612 11.865537157633643 0 0 0
205 1 8.323667510616767 13.791149355113049 10.736823133775559 0 0 0
209 1 9.713678829829666 15.11269309842322 12.022652745708982 0 0 0
368 1 12.430115233264498 12.436764400570693 12.144108093227226 0 0 0
383 1 13.75921288551663 13.752504061863636 10.563340925638919 0 0 0
379 1 15.02087511194664 15.185201175200998 11.829478476286333 0 0 0
54 1 20.584627142325218 12.727037739300728 8.946467784170054 -1 0 0
432 1 19.13246609135592 13.91972126306592 10.498177951371565 0 0 0
456 1 20.33464122140844 15.532700073057573 11.683115635096893 0 0 0
118 1 1.2376654280164812 18.06861504801162 11.96559656545602 0 0 0
74 1 0.2053632243884401 16.893197227838584 10.309221667437997 0 0 0
239 1 5.29688756729818 16.50280633931594 10.787726778173084 0 0 0
244 1 6.839951764188942 17.8990065269428 12.0489343412054 0 0 0
233 1 10.94263425274768 16.48283760873484 10.572885218774045 0 0 0
361 1 12.26390013314721 17.77797888509703 11.768644278450934 0 0 0
271 1 16.589026002999564 16.72090209693055 10.7623781082725 0 -1 0
497 1 17.951004556326428 18.059070764988032 11.9440206205466 0 0 0
116 1 2.689178619519192 19.457548766594567 10.710571792825624 0 0 0
148 1 4.303491887201848 20.643863258060044 12.028487068968701 0 -1 0
266 1 8.235490032669954 19.235386583126303 10.56789874590877 0 -1 0
275 1 9.59210689150877 20.571742734006744 11.823446526768118 0 -1 0
489 1 13.494879427812746 19.089857582971618 10.519985502628066 0 0 0
332 1 15.04520087804647 20.536658204150804 11.713742132392248 0 0 0
464 1 19.158924596640343 19.479642151678515 10.614117425271566 0 0 0
403 1 20.507260119602314 20.69134720688999 11.878916825821559 0 -1 0
506 1 2.874413510805485 0.17427397361060695 13.27874682151482 1 1 0
19 1 4.200915080322978 1.2192128776701778 14.781759856505458 0 0 0
146 1 5.3349563884401965 2.7874809920250336 13.499655019987118 0 0 0
153 1 9.730640044391572 1.3471296276388287 14.635892876281787 0 0 0
381 1 14.805289909509009 1.461253234582941 14.461762414405941 0 1 0
279 1 13.501783514417475 21.75754051921107 13.121047163129969 0 -1 0
407 1 16.53897656973905 2.821885641273555 13.29941586204515 0 0 0
404 1 0.31808641979971597 2.9359048610001013 13.271776343691108 1 0 0
438 1 20.64560727458891 1.6413247905757762 14.722949215022421 0 0 0
18 1 19.247540985151826 0.22940589829257857 13.42523162587755 -1 0 0
117 1 1.6160094897007935 4.364630570761519 14.592566484363354 0 1 0
408 1 2.7686595476210263 5.668023444323486 13.150263929651757 1 0 0
158 1 6.758434784010124 4.327915391832981 14.811849642848042 0 0 0
149 1 8.142149044853396 5.543512088435249 13.299601531884873 0 0 0
147 1 10.860216671346356 2.7378210226103694 13.062701056836966 0 0 0
312 1 12.138531485983435 4.257646127114486 14.539140965133122 0 0 0
306 1 13.683786957864793 5.4804272701425925 13.205945847284736 0 0 0
504 1 17.760607650831606 4.542343393776637 14.448681414473393 0 1 0
43 1 19.356044551186965 5.6383924240303 13.183052172293031 -1 0 0
56 1 0.16558647065379273 8.621944312734696 12.923632853073617 0 0 0
179 1 5.609112414266587 8.356487531657992 13.236889680922921 0 0 0
63 1 4.0365649046462595 6.926365126717188 14.703527756075259 0 0 0
318 1 9.539002371619262 7.245340277627834 14.600000192100522 0 0 0
173 1 11.092580155041514 8.364855065955847 13.223641300259052 0 0 0
467 1 15.123711306375434 7.127027820679024 14.3465811406375 0 0 0
304 1 16.67102090608005 8.558367917685068 13.23054486931097 0 0 0
396 1 20.674240590788767 7.252989107544709 14.357258458242836 0 0 0
87 1 1.4473669434744578 10.10960155220305 14.566873074430069 0 0 0
88 1 2.8559968065685357 11.26860406818219 13.100232941799954 0 0 0
315 1 6.824760912033903 9.840485794344945 14.694381669294856 0 0 0
89 1 8.382735454861226 11.273804500121464 13.219901948221707 0 0 0
347 1 12.365814747665018 9.709429268960813 14.663229000791434 0 0 0
310 1 13.72874169114067 10.982824404050746 13.394411740017594 0 0 0
343 1 15.045417457104236 12.74406035483857 14.559428628151627 0 0 0
477 1 18.21719257512797 9.986118835860463 14.689431700532655 0 0 0
475 1 19.504957449129627 11.307806530146118 13.3331404938879 0 0 0
113 1 1.499639378566965 14.975886426781564 14.517157767505685 0 0 0
119 1 21.64725747151052 13.949698019396783 12.959855643184765 -1 0 0
210 1 4.006133711580434 12.211891909040087 14.554490107129297 0 0 0
202 1 5.539195516421474 13.566824534226589 13.443463682431995 0 0 0
246 1 6.960967097263411 15.027368802169727 14.667133611820095 0 0 0
349 1 9.781588274046827 12.541577924409768 14.711820972854486 0 0 0
211 1 11.111466099837052 13.79291668278808 13.276113702969297 0 0 0
256 1 12.350316098714277 15.315744134737193 14.590734225773788 0 0 0
499 1 16.54173282371438 13.90668287784083 13.353236448315718 0 0 0
471 1 17.819544593034063 15.32593234957584 14.620932663625847 0 0 0
501 1 20.78665819076785 12.584225396500567 14.894236853860606 0 0 0
77 1 2.7803593992835225 16.651250416091454 13.397960635414687 0 0 0
252 1 4.273365403853934 17.863387292643104 14.823853779243308 0 0 0
245 1 8.208506409131623 16.35474764559922 13.355468045493124 0 0 0
372 1 9.538573387887897 17.958634096113517 14.738994207233569 0 0 0
369 1 13.638741839925547 16.709937304229445 13.421325251495531 0 0 0
283 1 15.105029387567049 18.023709543126277 14.640695655523768 0 -1 0
82 1 19.19333034939562 16.68638129606411 13.455321449950292 -1 0 0
16 1 20.703810679721915 17.94930151611392 14.810320359254165 -1 -1 0
439 1 1.6061233863014879 20.706954056921294 14.70706752865727 1 -1 0
81 1 21.711496800905312 19.448655821933325 13.342350369521553 -1 0 0
242 1 5.532222972825105 19.12722292105638 13.389105441340094 0 0 0
151 1 8.433596469199712 0.1439257313949795 13.009811690922488 0 0 0
159 1 6.967995785662563 20.64635016061494 14.51130546373532 0 -1 0
152 1 10.963304567806983 19.08079961995172 13.258329930360949 0 -1 0
492 1 12.273980370716544 20.373336228207034 14.5288793981839 0 0 0
394 1 16.528902762331047 19.377461089501182 13.135386360069536 0 -1 0
402 1 17.81296037594701 20.57133140526528 14.632877491990445 0 -1 0
410 1 1.634533069438928 1.5546310808368964 17.24521941232723 1 0 0
24 1 3.075438511519661 3.006608109896463 15.833761073262428 0 0 0
241 1 5.82633940144403 0.04164265658363261 16.32168020246942 0 1 0
164 1 6.898907952600866 1.545012116382898 17.727882256413814 0 0 -1
281 1 8.138536112218741 2.7946354575874195 16.021658023960374 0 0 0
380 1 8.453530928172034 0.20949270022663968 18.81970542276621 0 1 0
377 1 10.908110131424136 0.09798079296661429 15.981545106940953 0 1 0
287 1 12.254258467968583 1.359567004557865 17.259060552030203 0 0 0
286 1 13.465717693090669 2.711376233030853 15.940590565906106 0 0 0
390 1 13.628421476735362 0.4029860970652166 18.86986807091862 0 0 -1
409 1 16.111514754332852 0.03943682818436578 15.935905379432166 0 0 0
442 1 17.645177486217143 1.5396677063306696 17.102423325346322 0 0 0
280 1 16.40761693940987 2.9474377242533 18.551589618287267 0 0 0
180 1 19.140511806691535 3.103798968011732 16.096301514936833 -1 0 0
186 1 5.570803199833644 5.682192622684413 16.027206713936902 0 0 0
28 1 4.140315361876771 4.395136829402066 17.537892002290786 0 0 0
191 1 8.163201054009422 5.577947295689851 18.79178298191926 0 0 0
262 1 10.786162723264512 2.8437761643288515 18.511867164626707 0 0 -1
254 1 9.392655576132249 4.247330083910779 17.3761824688017 0 1 0
311 1 10.812254146857141 5.789831259158278 16.05848928404173 0 0 0
274 1 14.943656994002733 4.3070532734417135 17.232367269977214 0 0 0
314 1 13.896438563599936 5.763657979603013 18.797631642243324 0 0 0
285 1 16.3168818834917 5.8444407269866785 15.8170826756577 0 0 0
51 1 0.24853796094472713 5.925241024062023 15.670868681392001 0 0 0
413 1 20.839511637705023 4.39461707061365 17.126780329226694 0 0 0
17 1 1.458213037177464 6.9205627113816055 17.19960513772626 0 0 0
92 1 2.8006640210908023 8.426761984880825 15.924779173051066 0 0 0
447 1 0.22370213192507407 8.405363598667167 18.718277492661887 1 0 0
220 1 5.532687820538791 8.301812411239885 18.751492386724596 0 0 0
185 1 8.18424987555044 8.617279789969889 15.965599112572027 0 0 0
55 1 6.9875194687227875 7.033927858631617 17.383210565226605 0 0 0
276 1 12.363522291532838 7.096510915839744 17.413388856963323 0 0 0
308 1 13.58869083158732 8.27683031519387 15.929217431005778 0 0 0
434 1 17.830059510894248 7.21731051029645 17.146681922322237 0 0 0
21 1 19.57775371783468 8.373140754147567 15.932751249490597 -1 0 0
444 1 0.40740154923277855 11.220122554814338 16.10622823160509 1 0 0
71 1 2.9122874264350456 11.315937836155896 18.81155325503545 0 0 -1
96 1 3.9962627452839596 9.779891111697726 17.53846877362472 0 0 0
95 1 5.426152127708616 11.08117909196628 15.993315810592772 0 0 0
57 1 6.894899349257454 12.494677902757463 17.47135735797122 0 0 0
224 1 9.588194380164625 9.556096947697162 17.487378672923338 0 0 0
187 1 10.93272675848498 10.931164931129475 16.021531772474262 0 0 0
473 1 12.302258389105914 12.503815473454805 17.330417477250375 0 0 0
445 1 14.989753800725383 9.837529434150436 17.23055353949236 0 0 0
326 1 13.593541925774895 11.110473762406464 18.65362871949528 0 0 -1
441 1 16.430542615872355 11.128898547874348 15.82200387431255 0 0 0
322 1 20.852235077625693 9.753899033561128 17.328113167106064 0 0 -1
469 1 1.451604239830584 12.748050778930502 17.39281653066251 1 0 0
94 1 2.878847655595008 13.814566352099064 15.953417652317833 0 0 0
128 1 21.77756141884311 14.016711684067268 18.753331191590476 -1 0 0
222 1 4.274715243074131 15.451434039203553 17.28449678959055 0 0 0
217 1 8.211119153769008 13.624554133363684 16.05807661434483 0 0 0
351 1 9.652721947598327 15.079588221644677 17.360764059568808 0 0 0
340 1 13.73121862594736 13.987296688165905 16.058465565472115 0 0 0
378 1 15.151406554622412 15.163252286436268 17.256474353248098 0 0 0
460 1 17.916504110644365 12.16138214281225 17.376991083645365 0 0 0
453 1 16.53727462845517 13.721697663221844 18.570791678719598 0 0 -1
440 1 19.0698890087623 13.939076299345134 16.033307665566102 0 0 0
124 1 20.614756420809304 15.072300858767449 17.10271562461356 -1 0 0
126 1 1.4549638329358714 17.905176994408254 17.238646641761758 0 0 0
476 1 0.0580499036735027 16.37422084821196 15.881101341549606 1 0 0
115 1 2.989614245837633 16.70546272149195 18.76242407393568 0 0 0
218 1 5.770010954372629 16.58936596600358 15.941941613712935 0 0 0
255 1 6.99548975395317 17.972982061988464 17.295112693023405 0 0 0
248 1 10.89662221991523 16.433953045351686 15.993992616808407 0 0 0
277 1 12.350365932226971 17.816461567008886 17.4098413302778 0 -1 0
336 1 16.391670065267714 16.64863776066685 16.070539423130125 0 0 0
511 1 17.8312065513709 17.81286133417766 17.574256216656966 0 0 0
183 1 0.20998310953207402 0.30487957564780027 16.0955869897914 0 0 0
85 1 0.16338032110658235 19.35376369867376 18.67586869310159 0 0 0
156 1 2.869225089152565 19.19579103221972 15.915106850073487 0 -1 0
121 1 4.422040206370826 20.215997825317945 17.2668742375236 0 0 0
155 1 5.667692819016731 19.200640562996387 18.851921995038875 0 -1 0
243 1 8.289772847082743 19.36341962910803 15.819331286651101 0 0 0
345 1 9.61291914962414 20.394484914672024 17.246468746092017 0 0 0
414 1 13.603773000186463 19.19408899057998 15.836753486439566 0 -1 0
510 1 14.664321951810724 20.520437958383923 17.39038799122037 0 0 0
375 1 16.463031614927445 19.3002042842573 18.64214393051021 0 0 0
498 1 19.270215865508302 19.19457221692246 16.247928142851286 0 0 0
30 1 20.68693147998967 20.652912583987714 17.416338350478426 -1 -1 0
446 1 0.29067134315499205 2.781713143217911 18.708025319113435 1 0 0
400 1 3.142923054427602 0.1198083252846212 18.659229616504767 1 0 0
32 1 2.7381079730272764 3.229018164375702 21.402226997660577 0 0 0
188 1 5.601097131994593 3.0973618597936396 18.7091837559306 0 0 0
25 1 4.209303660052385 1.8638042561215178 20.126974972093734 0 0 0