LAMMPS (10 Sep 2025)
OMP_NUM_THREADS environment is not set. Defaulting to 1 thread.
  using 1 OpenMP thread(s) per MPI task
Loaded 1 plugins from C:\Users\lmike\AppData\Local\LAMMPS 64-bit 10Sep2025 with GUI\plugins
# LAMMPS input generated from LammpsInputFile with pymatgen v2025.10.7

# STYLES
units metal
atom_style atomic

# SET UP CALCULATION
read_data starting_config.dat
Reading data file ...
  orthogonal box = (0 0 0) to (21.800341 21.800341 21.800341)
  1 by 1 by 1 MPI processor grid
  reading atoms ...
  511 atoms
  read_data CPU = 0.003 seconds
pair_style sw
pair_coeff * * Si.sw Si
Reading sw potential file Si.sw with DATE: 2007-06-11
velocity all create 1200 4707682

# CALCULATION PARAMETERS
fix f1 all nvt temp 1200.0 1200.0 $(100.0*dt)
fix f1 all nvt temp 1200.0 1200.0 0.10000000000000000555
thermo 100000
thermo_style custom step temp press spcpu cpuremain

# RUN CALC AND WRITE OUTPUTS
dump d1 all custom 100 state_dump id type x y z vx vy vz
run 10000000
Neighbor list info ...
  update: every = 1 steps, delay = 0 steps, check = yes
  max neighbors/atom: 2000, page size: 100000
  master list distance cutoff = 5.77118
  ghost atom cutoff = 5.77118
  binsize = 2.88559, bins = 8 8 8
  1 neighbor lists, perpetual/occasional/extra = 1 0 0
  (1) pair sw, perpetual
      attributes: full, newton on
      pair build: full/bin/atomonly
      stencil: full/bin/3d
      bin: standard
Per MPI rank memory allocation (min/avg/max) = 3.118 | 3.118 | 3.118 Mbytes
   Step          Temp          Press          S/CPU         CPULeft    
         0   1200          -2341.3518      0              0            
    100000   1206.1604     -1813.7306      408.49531      24235.285    
    200000   1121.5802     -2616.4686      405.53865      24077.937    
    300000   1120.4306     -1915.4193      454.85727      22996.62     
    400000   1203.6494     -1303.5056      505.71323      21815.428    
    500000   1127.1313     -2622.9797      528.49983      20865.629    
    600000   1150.2875     -1648.8125      521.51723      20209.048    
    700000   1203.6597     -1353.615       511.16922      19736.847    
    800000   1184.6706     -1456.3539      517.07266      19308.104    
    900000   1298.3289     -420.57368      508.89969      18963.065    
   1000000   1274.526      -984.23413      509.09115      18647.068    
   1100000   1263.8042     -1312.8408      517.34628      18327.451    
   1200000   1185.7675     -2164.5542      520.16259      18021.213    
   1300000   1159.4446     -1624.6117      502.11018      17778.769    
   1400000   1201.8084     -1670.9348      504.31062      17537.17     
   1500000   1138.1652     -2453.1962      494.70221      17323.17     
   1600000   1173.6133     -2735.5961      510.85564      17077.095    
   1700000   1202.2633     -2457.0271      505.88732      16846.327    
   1800000   1173.9477     -1763.8443      508.61125      16614.413    
   1900000   1279.5029     -1594.8369      507.92282      16387.351    
   2000000   1217.7984     -1845.0499      515.09097      16152.348    
   2100000   1277.956      -672.58453      513.89211      15922.94     
   2200000   1173.3885     -1137.3662      512.13854      15699.06     
   2300000   1169.7834     -2538.1971      510.00375      15480.405    
   2400000   1220.5396     -2092.4955      515.64812      15256.834    
   2500000   1200.2192     -2481.9188      518.47055      15032.468    
   2600000   1202.9261     -2212.4991      521.40688      14807.433    
   2700000   1208.3924     -1317.9737      511.71704      14594.679    
   2800000   1230.9561     -896.23391      505.86171      14388.98     
   2900000   1178.5288     -2102.1937      514.67749      14175.544    
   3000000   1241.6904     -788.93476      525.43001      13954.106    
   3100000   1234.7823     -1572.7704      512.07298      13745.726    
   3200000   1219.5679     -1874.8658      521.97627      13530.29     
   3300000   1256.1302     -1460.711       510.87841      13324.75     
   3400000   1210.4805     -1650.8591      523.7757       13110.431    
   3500000   1178.7228     -1327.8289      514.19689      12904.053    
   3600000   1146.2921     -1615.0391      507.77096      12702.712    
   3700000   1237.6352     -2020.1616      511.48249      12499.175    
   3800000   1154.4737     -2100.1544      521.78959      12289.76     
   3900000   1192.4002     -2348.6755      510.02799      12088.169    
   4000000   1167.0199     -2474.9777      513.73221      11884.733    
   4100000   1276.9065     -1608.8023      506.60406      11685.667    
   4200000   1267.4817     -617.16473      521.20357      11479.045    
   4300000   1249.609      -287.36442      508.78172      11279.319    
   4400000   1232.6819     -1827.0106      504.79413      11081.713    
   4500000   1185.7266     -2278.3667      498.23271      10887.274    
   4600000   1242.93       -2372.4563      514.92194      10684.926    
   4700000   1229.0015     -2129.5114      514.33482      10483.174    
   4800000   1221.506      -937.81947      511.67297      10282.823    
   4900000   1202.3769     -1150.7597      501.02825      10086.995    
   5000000   1189.6277     -1602.4288      517.97205      9884.4872    
   5100000   1180.4648     -1491.9466      506.29369      9686.6284    
   5200000   1240.8332     -1056.3695      510.03078      9487.447     
   5300000   1233.4864     -1232.3032      504.76516      9290.197     
   5400000   1217.3332     -907.92545      518.8074       9088.3472    
   5500000   1183.6872     -1435.9547      518.82252      8886.8237    
   5600000   1231.7895     -1382.5403      516.27381      8686.3614    
   5700000   1233.3712     -517.4201       502.98055      8489.9984    
   5800000   1173.7571     -1999.4546      507.00776      8292.4073    
   5900000   1217.3475     -1757.9283      513.59246      8093.071     
   6000000   1252.2326     -1558.8247      522.91267      7891.5753    
   6100000   1150.4445     -2354.5308      508.98589      7693.7615    
   6200000   1185.2134     -1498.0153      516.23322      7494.3006    
   6300000   1136.0671     -1637.4702      526.16558      7292.8746    
   6400000   1192.2188     -1762.4523      514.98807      7094.1243    
   6500000   1118.238      -2273.9155      501.39148      6898.35      
   6600000   1245.6984     -2574.5669      509.98625      6700.733     
   6700000   1289.3263     -1127.6883      510.00786      6503.1576    
   6800000   1192.6615     -1214.9998      523.44436      6303.2578    
   6900000   1225.5143     -1811.559       502.70197      6107.1563    
   7000000   1201.0123     -2964.211       518.84911      5908.3209    
   7100000   1172.4855     -1799.9276      550.99319      5705.0649    
   7200000   1231.5706     -1238.2567      623.05443      5494.2503    
   7300000   1155.397      -2314.3919      624.12615      5284.7123    
   7400000   1217.1158     -1089.2398      643.73417      5074.7924    
   7500000   1197.2389     -1479.761       657.06621      4865.2772    
   7600000   1249.7938     -397.55389      664.02104      4656.7671    
   7700000   1174.9675     -1322.2539      673.31225      4449.1405    
   7800000   1160.0808     -2296.3366      680.20083      4242.6053    
   7900000   1177.4723     -2109.0108      662.18248      4038.6402    
   8000000   1197.7407     -1235.7987      675.77345      3835.2396    
   8100000   1238.4898     -1968.141       679.72875      3633.0055    
   8200000   1186.2242     -1094.6322      665.76785      3432.7928    
   8300000   1274.9617     -1191.5884      666.32113      3233.7597    
   8400000   1192.4949     -2086.5896      679.25095      3035.348     
   8500000   1152.7402     -1746.5877      682.60854      2838.0131    
   8600000   1173.364      -2015.5829      682.04989      2641.8799    
   8700000   1216.0041     -973.65966      681.99032      2446.887     
   8800000   1281.6557     -915.85751      680.86294      2253.0263    
   8900000   1191.4094     -1704.3158      674.99279      2060.3794    
   9000000   1135.4928     -3054.6395      680.78035      1868.5814    
   9100000   1262.4252     -1983.6351      698.56097      1677.4007    
   9200000   1267.9488     -1912.1244      701.21582      1487.2169    
   9300000   1156.7895     -2035.2023      706.6184       1297.9741    
   9400000   1217.5565     -1098.8668      728.16022      1109.4795    
   9500000   1161.8216     -1660.4467      775.21391      921.62326    
   9600000   1271.8978     -1355.7324      790.50111      734.88934    
   9700000   1160.113      -2525.5636      816.86268      549.27104    
   9800000   1220.1898     -1438.8247      828.51334      364.90738    
   9900000   1146.8845     -1457.5039      868.85154      181.7733     
  10000000   1191.4707     -2321.6537      873.6965       0            
Loop time of 18110 on 1 procs for 10000000 steps with 511 atoms

Performance: 47.708 ns/day, 0.503 hours/ns, 552.181 timesteps/s, 282.164 katom-step/s
99.6% CPU use with 1 MPI tasks x 1 OpenMP threads

MPI task timing breakdown:
Section |  min time  |  avg time  |  max time  |%varavg| %total
---------------------------------------------------------------
Pair    | 17824      | 17824      | 17824      |   0.0 | 98.42
Neigh   | 15.627     | 15.627     | 15.627     |   0.0 |  0.09
Comm    | 43.851     | 43.851     | 43.851     |   0.0 |  0.24
Output  | 144.27     | 144.27     | 144.27     |   0.0 |  0.80
Modify  | 65.446     | 65.446     | 65.446     |   0.0 |  0.36
Other   |            | 16.71      |            |       |  0.09

Nlocal:            511 ave         511 max         511 min
Histogram: 1 0 0 0 0 0 0 0 0 0
Nghost:           1366 ave        1366 max        1366 min
Histogram: 1 0 0 0 0 0 0 0 0 0
Neighs:              0 ave           0 max           0 min
Histogram: 1 0 0 0 0 0 0 0 0 0
FullNghs:        18202 ave       18202 max       18202 min
Histogram: 1 0 0 0 0 0 0 0 0 0

Total # of neighbors = 18202
Ave neighs/atom = 35.620352
Neighbor list builds = 20680
Dangerous builds = 0
write_data FINAL_STRUCTURE
System init for write_data ...
Total wall time: 5:01:50
