LAMMPS data file via write_data, version 10 Sep 2025, timestep = 10000000, units = metal

517 atoms
1 atom types

0 21.763403 xlo xhi
0 21.763403 ylo yhi
0 21.763403 zlo zhi

Masses

1 28.085

Atoms # atomic

513 1 1.3038808538058042 1.234481124358224 1.4128500966191444 0 0 0
130 1 5.7860246118941845 2.781855734240508 2.7018648574858397 0 0 0
135 1 6.972445732843797 1.2187753324707327 1.4336931105011097 0 0 0
136 1 8.413984871356046 21.73024799802477 2.8811739016503357 0 -1 0
258 1 10.9839888215427 2.568289578500534 2.625663885073763 0 0 0
263 1 12.447060297045779 1.1451582888226566 1.3768317892732214 0 0 0
391 1 17.75882548389769 1.5337617787534417 1.415732772564862 0 0 0
386 1 16.26475232451404 2.600882670541192 2.810785031880798 0 0 0
2 1 0.02228336173338974 2.7403389751588807 2.666935045689215 0 0 0
4 1 21.753071148748717 21.641667597352182 0.12718877295204165 -1 -1 0
6 1 4.223649256717655 3.772358085607184 1.3472427203475277 0 0 0
514 1 8.322389815464776 5.4256387428848 2.779455685371311 0 0 0
129 1 9.650506839335517 4.022892770998289 1.3194968831594385 0 0 0
257 1 15.015553213365072 4.138041911937024 1.2171148604879938 0 0 0
296 1 13.565207448559724 5.32490517365508 2.66269201693499 0 0 0
385 1 20.326086377102037 4.202554050306018 1.3772449758489567 0 0 0
424 1 19.023022729427392 5.642492217002631 2.763428466898065 0 0 0
39 1 0.9251531033048436 6.356012242735635 1.896717609685821 0 0 0
515 1 1.3980622595441425 9.161194391190476 0.9964542950842984 0 0 0
34 1 21.41327138434152 8.420350493256356 2.8861254177719444 -1 0 0
162 1 3.2330483643751453 6.756583339537434 1.3735443754906047 0 0 0
168 1 5.672270369606021 8.212759721945213 2.6700244119832135 0 0 0
167 1 7.145218832610387 6.742228732050321 1.4290835418159114 0 0 0
166 1 8.451785466063775 8.2546359038671 21.7531817908957 0 0 -1
290 1 10.987771202868341 8.46221257148434 2.6952842733048668 0 0 0
295 1 12.254815206023773 6.810423652161639 1.5073428337194394 0 0 0
423 1 17.6550965525319 6.880230602604508 1.2858246480234714 0 0 0
418 1 16.307960636347854 8.219374256883999 2.6888469367289183 0 0 0
71 1 1.4141235878016556 12.366888389251942 1.4829157305795013 0 0 0
72 1 2.6353249016909066 10.885850794128029 2.7584543860734185 0 0 0
517 1 4.205713029410327 9.530672593115028 1.3172428341725486 0 0 0
200 1 8.312278282736637 10.913477874078582 2.702753900924088 0 0 0
199 1 6.919958949731829 12.28402836678042 1.6128268673943083 0 0 0
161 1 9.775033386524083 9.695930630824597 1.2931026948989939 0 0 0
327 1 12.260913769676504 12.196267338591355 1.4613781484339083 0 0 0
324 1 11.008227898269539 10.840161256454524 21.65935930603842 0 0 -1
289 1 14.953252956888027 9.650836105183876 1.459035081119477 0 0 0
328 1 13.726956330910884 10.932655456751856 2.810559447735301 0 0 0
455 1 17.700513999433774 12.397314416592664 1.4873760160744929 0 0 0
452 1 16.436008841551118 10.990132862192524 0.0660163018715565 0 0 0
417 1 20.050638988539387 9.676996823629834 1.3895928699463738 0 0 0
456 1 18.856751652784467 11.023091466195611 2.7733883656839264 0 0 0
70 1 2.6459223565383994 13.657745894702273 21.75310355069445 0 0 -1
65 1 3.870637571768761 14.985626814906848 1.3345501533387565 0 0 0
194 1 5.3223700504432285 13.526541239678691 2.746736653387852 0 0 0
193 1 9.459663370492724 14.999046465140635 1.2817520475195983 0 0 0
322 1 11.00143946858241 13.76357048959661 2.5997808336988255 0 0 0
321 1 14.93199764316329 15.026361473677136 1.2886992174752328 0 0 0
326 1 13.39311580878893 13.753602410764039 0.09362933537611808 0 0 0
450 1 16.30377362391151 13.72556451261737 2.742369368909507 0 0 0
66 1 21.610339071659368 13.516986205150015 2.733593202321165 -1 0 0
449 1 20.342419998713652 15.09871433911075 1.2929263338920391 0 0 0
454 1 19.095113065961726 13.63393054759707 21.610456757294703 0 0 -1
103 1 1.2558619328926461 17.59494883578318 1.3257085184242836 0 0 0
104 1 2.5649466542901482 16.155734524692072 2.765898970894161 0 0 0
231 1 6.59187874275633 17.552471037086264 1.4571042161122583 0 0 0
232 1 8.107527860586087 16.361689791584894 2.769357762771881 0 0 0
359 1 12.17257481691253 17.525558732201652 1.293920542592926 0 0 0
360 1 13.681657929787962 16.37320226988469 2.789942147102996 0 0 0
487 1 17.73861919426892 17.71134368402677 1.3876340731924321 0 0 0
488 1 19.125565585642605 16.368663478804358 2.7119813906018764 0 0 0
100 1 21.686646043148233 16.51415705251148 0.031734615889276 -1 0 0
8 1 2.804813320914659 0.10255430489437245 2.877636032939458 0 0 0
98 1 21.632696111662703 18.916251833234252 2.7448816400632556 -1 0 0
97 1 4.184129120791309 20.366789795348453 1.429612383933641 0 0 0
226 1 5.303535527759314 19.11569866502269 2.861491364440741 0 0 0
225 1 9.752160159247689 20.231601751705412 1.5809282192537693 0 0 0
354 1 11.168362323852474 18.85575857736772 2.826591404344357 0 0 0
264 1 13.631830883736987 21.518171244348373 2.720665508585107 0 -1 0
353 1 15.035948414023096 20.35693702051726 1.3567501424188313 0 0 0
358 1 13.708396710975284 18.877686384800466 21.748164434694505 0 0 -1
482 1 16.32779704156847 19.003580926926308 2.656417247001152 0 0 0
388 1 16.28891822972406 0.007574140700460721 0.12939347246926758 0 0 0
392 1 18.93123931879465 0.04835861427562804 2.727449004236908 0 0 0
481 1 20.36236287537393 20.279977126273145 1.373031260788089 0 0 0
5 1 0.7611239022210562 2.719574406192194 5.571898205052517 0 0 0
3 1 4.452969179364165 1.326135329086893 4.044550562672904 0 0 0
14 1 3.0335926978384737 2.9127916795269884 5.151016780637153 0 0 0
142 1 8.214644887531115 2.8490553062621213 5.555155955740943 0 0 0
131 1 9.57339179696657 1.5603292965665312 4.194966874418218 0 0 0
259 1 14.85892632582209 1.3334987181057603 4.030805977691074 0 0 0
270 1 13.5704885079758 2.7206949676989396 5.506867798575114 0 0 0
398 1 18.830026669667745 2.813617567200115 5.572588199136748 0 0 0
387 1 20.184622478278087 1.4797870370798656 4.145160776467629 0 0 0
12 1 21.57485294922721 21.49702373521512 5.3093024704458225 -1 -1 0
40 1 0.8853414180508132 4.735560439120369 3.480117317801233 0 0 0
1 1 3.348526134975024 4.729313733590618 3.5347832502302445 0 0 0
172 1 5.7884344140822375 5.500454204401693 5.310825037671131 0 0 0
133 1 7.049848504986752 4.042512227973725 4.145799817237022 0 0 0
300 1 11.027694889558473 5.447274478928131 5.457742925345217 0 0 0
261 1 12.15416836197142 3.990410052161853 4.00943971703415 0 0 0
389 1 17.61030519494491 4.238401662107497 3.8646182542895735 0 0 0
428 1 16.241672883948254 5.411182052286056 5.432349445381236 0 0 0
44 1 21.73307512906107 5.502612002885829 5.471735732839645 -1 0 0
46 1 2.7895886755843793 8.303619608604611 5.410726722716491 0 0 0
35 1 4.182592433894708 6.899081889979633 4.003471909848019 0 0 0
174 1 8.38755712246425 8.199350634096875 5.457061485378322 0 0 0
163 1 9.711793446948544 6.946330573272983 4.035062687566755 0 0 0
291 1 14.948035008168624 6.721990809325141 3.9969338895595667 0 0 0
302 1 13.71521636944852 8.271421155353913 5.4084732088080045 0 0 0
430 1 18.87049050112336 8.086759657446478 5.544875674235933 0 0 0
419 1 20.25675875734466 6.925963665705961 4.303168112268995 0 0 0
37 1 1.1822970671477977 9.607735509406352 4.187164155310782 0 0 0
76 1 21.474095390197547 10.916868845844924 5.4582278322423345 -1 0 0
204 1 5.5536601029188555 10.712805291389822 5.583495060615995 0 0 0
67 1 4.146617745904241 12.034725062323785 4.153017150541294 0 0 0
165 1 6.900270063529559 9.45238194327207 4.1018065835576465 0 0 0
293 1 12.316491896628234 9.670194079061272 4.2112559589813285 0 0 0
332 1 11.010113287242296 10.995023907137137 5.6173177051198815 0 0 0
195 1 9.700690337369123 12.24697976206569 4.006368856464475 0 0 0
323 1 15.177800109159545 12.22185144833532 4.138883415435546 0 0 0
421 1 17.632880838330262 9.605841982880687 4.1078920971579596 0 0 0
460 1 16.485116410298776 10.911872432402943 5.548785321201705 0 0 0
451 1 20.259653083015166 12.196819854079958 4.101151816707727 0 0 0
69 1 1.2733243324560009 14.750179226100077 4.1739124433221955 0 0 0
78 1 2.7866532810090563 13.51962401483623 5.413640180930387 0 0 0
197 1 6.659005343156101 14.9333987712855 3.9652104294685033 0 0 0
206 1 8.054994853769193 13.631908944550585 5.347722293999557 0 0 0
325 1 12.461499572317635 15.034821260872317 3.9918021347110133 0 0 0
334 1 13.830973330229709 13.782036734133579 5.423250163667894 0 0 0
453 1 17.79785033721439 15.120496477153386 4.121148554299957 0 0 0
462 1 18.99295850423156 13.55753267495078 5.390324230995225 0 0 0
108 1 0.07605238145853604 16.10683076358839 5.513354259302077 0 0 0
99 1 4.019158377449476 17.553652393068074 4.116101040024966 0 0 0
236 1 5.446038050101444 16.27721944491516 5.431553337721678 0 0 0
227 1 9.692849525156308 17.627834252691514 3.9940282432199465 0 0 0
364 1 11.023124743622914 16.299116613595704 5.40011150756903 0 0 0
355 1 14.972526119365687 17.725918300467356 4.097473596216289 0 0 0
492 1 16.52328258542952 16.43450806661349 5.442913764314994 0 0 0
483 1 20.453063901442984 17.55582699640348 4.15943900824286 0 0 0
110 1 2.6968941431169045 18.740848517935547 5.450445733668319 0 0 0
101 1 1.3845238689851267 20.177087441579992 3.947256391379542 0 0 0
140 1 5.659768016415875 0.05106431807150713 5.676251312564773 0 0 0
238 1 8.387768185505118 18.89989601116095 5.299029299403015 0 0 0
229 1 6.86734612457778 20.405781934797936 4.137075917621373 0 0 0
268 1 11.023321223796984 0.19705323943463948 5.5175826759053 0 0 0
357 1 12.251322554210192 20.217927833765213 4.248339110618147 0 0 0
366 1 13.779244083084581 18.99827007157694 5.428795608001901 0 0 0
396 1 16.240765574203785 0.025726034455487934 5.540667827315749 0 0 0
485 1 17.486229923928924 20.34055398974743 4.170049134489918 0 0 0
494 1 19.075346542925146 19.022384463797273 5.393601991733753 0 0 0
15 1 1.0702947122451831 0.668339694169716 7.262451227781816 0 0 0
516 1 3.3209498774806177 1.1536090400756727 7.146700774906166 0 0 0
10 1 21.68610028160372 2.7436488131294037 8.119845111749571 -1 0 0
138 1 5.502636597523522 2.8569937382396713 8.294750433853864 0 0 0
143 1 6.893930986216304 1.4452742040809126 6.949997776052592 0 0 0
144 1 8.362011600192991 21.67500466610245 8.112010735468859 0 -1 0
266 1 11.001586866934504 2.6950092325913695 8.234451102136866 0 0 0
271 1 12.28479265785393 1.3176141752506734 6.91163454517371 0 0 0
272 1 13.623045573584752 21.716965100837054 8.270483513347955 0 -1 0
394 1 16.097833485966326 2.7362838229354858 8.21735309431169 0 0 0
399 1 17.523421385756176 1.5031837969542259 6.839887498396324 0 0 0
400 1 18.81452133509879 21.760573868861474 8.183749643144111 0 -1 0
48 1 2.62020735326102 5.5966382633272005 8.06042538427199 0 0 0
9 1 4.288892928051209 4.192438707816814 6.815154076681456 0 0 0
176 1 8.29410869199143 5.502924977443136 8.229625870086506 0 0 0
137 1 9.68826620236082 4.061201153997856 6.85969361336521 0 0 0
265 1 14.781524410536543 4.251697806935116 6.952727541344557 0 0 0
304 1 13.5381751990157 5.727118732488679 8.36104877149168 0 0 0
432 1 18.830854250634808 5.413637518213221 8.092874548434423 0 0 0
393 1 20.207006602138268 4.157368598429474 6.7350854699606515 0 0 0
47 1 1.5161141012875683 6.980164718076618 6.766589916887605 0 0 0
170 1 5.511176300072826 8.171946238451536 8.25643580077709 0 0 0
175 1 6.916027533131116 6.88089465024476 6.877660442735153 0 0 0
298 1 10.92703591660651 8.144513884876153 8.067475695374696 0 0 0
303 1 12.36070952432111 6.868871402809641 6.719071775724841 0 0 0
426 1 16.127339095643034 8.190486059804188 8.008642717276066 0 0 0
431 1 17.55468237984334 6.759906562325059 6.6949019829732705 0 0 0
42 1 0.0718147710095939 8.116499427781555 8.118031956203703 0 0 0
80 1 2.696928119617268 10.924381810500694 8.01284208050745 0 0 0
41 1 4.087149292851446 9.503688246352992 6.985391698654467 0 0 0
208 1 8.28805158098589 10.984880099626535 8.118676219023742 0 0 0
207 1 6.866933868448941 12.185479666127206 6.806219266812206 0 0 0
169 1 9.581935231717335 9.555645007855764 6.8386732379048665 0 0 0
335 1 12.434088113724858 12.435197540321006 6.823135710303959 0 0 0
297 1 14.877186309606477 9.608616585900382 6.8182827887121285 0 0 0
336 1 13.576894830524676 10.961844468739784 8.211979507550403 0 0 0
463 1 17.622053520778433 12.299653300471215 6.850835174805468 0 0 0
425 1 20.245772808254774 9.438736347358136 6.877918848473533 0 0 0
464 1 18.82208431395876 10.757305438464249 8.119619119082701 0 0 0
79 1 1.2799724790796385 12.252470872464208 6.785162471753926 0 0 0
74 1 21.716247973665872 13.434456198798825 8.20931587298854 -1 0 0
73 1 4.0101281684292545 14.980410635836892 6.854062480711613 0 0 0
202 1 5.264540846841593 13.522709163045626 8.149601981862771 0 0 0
201 1 9.558616031445615 15.06553898941369 6.532901774182771 0 0 0
330 1 10.950137205830123 13.774522083524545 8.191134079438687 0 0 0
329 1 15.055736271953963 15.112273362264808 6.828983859260099 0 0 0
458 1 16.2326081038231 13.626502595124595 8.213922096827627 0 0 0
457 1 20.411913991903987 14.89540888648602 6.855514283515409 0 0 0
111 1 1.3098241415946872 17.436123024872334 6.867489857890772 0 0 0
112 1 2.6811366948371314 16.25984827271873 8.352549233638245 0 0 0
239 1 6.938783110347723 17.500589588508817 6.655197338583491 0 0 0
240 1 8.312839025145028 16.193144833530507 8.012853207024099 0 0 0
367 1 12.411706160895942 17.643419237943906 6.701175864645546 0 0 0
368 1 13.668908073541226 16.432949774817494 8.193397975719686 0 0 0
495 1 17.602132931976627 17.81828593554579 6.715826516459524 0 0 0
496 1 18.817024089554817 16.30349777502154 8.119396588705094 0 0 0
109 1 0.827793514340153 20.841760974930768 9.116309242910871 0 0 0
105 1 3.988363284589758 20.325223915847854 6.742290698133049 0 0 0
234 1 5.471125624212495 19.083227023733503 7.8896295555935865 0 0 0
16 1 3.1626604935153178 20.822078944870828 9.245356942069298 0 -1 0
233 1 9.712281725285008 20.409076108192536 6.76490635434326 0 0 0
362 1 11.076951751796457 18.88585553780758 8.057493608994392 0 0 0
361 1 14.923274133162545 20.314908458723387 6.951096902119031 0 0 0
490 1 16.21180727059005 19.036497128906714 8.244544645565746 0 0 0
493 1 17.369844838081562 20.4474824602107 9.6387987240086 0 0 0
106 1 21.58929155328826 18.80322190681513 7.998233498507676 -1 0 0
489 1 20.211720983192027 20.365179995545255 6.926858727547723 0 0 0
22 1 2.635326371664129 2.652165647759306 10.906148342468697 0 0 0
23 1 1.4133999390876557 1.3505698916601085 12.240187758828593 0 0 0
11 1 4.197551602885317 1.3492369125225134 9.67343733702003 0 0 0
150 1 8.33103874279566 2.660714526263339 11.005061902356232 0 0 0
151 1 6.880781765535203 1.2269070770162884 12.145038253343055 0 0 0
139 1 9.59377987226145 1.2100084248390042 9.510375627841862 0 0 0
279 1 12.214921928805069 1.2907634924375424 12.17615305941888 0 0 0
276 1 10.966440887865298 21.623643944340042 10.863039820673526 0 -1 0
267 1 14.811261750382535 1.3303358708762383 9.812561624121175 0 0 0
278 1 13.570341392697687 2.7224457400944737 10.928028418304844 0 0 0
407 1 17.745351208436848 1.3449214898680337 12.025932699686624 0 0 0
406 1 19.024844297816106 2.801439408820205 10.793640120144222 0 0 0
395 1 20.282437441714702 1.4240518891840939 9.493472537612677 0 0 0
13 1 1.3339270347870165 3.923793727921348 9.480377778312565 0 0 0
180 1 5.509543053131246 5.489235344193592 10.865827538291578 0 0 0
17 1 4.02899345817346 4.092894826506958 12.118136490608972 0 0 0
141 1 6.896575713902519 4.033193643476104 9.620746025456832 0 0 0
308 1 10.787519881674289 5.54236855693709 10.964557789327648 0 0 0
145 1 9.585248224909968 4.118180023550364 12.448048146939062 0 0 0
269 1 12.268654000824618 4.142420565888597 9.549536754397044 0 0 0
397 1 17.59559816310718 4.0326862320673404 9.442395917520715 0 0 0
436 1 16.344099836253477 5.380229515719534 10.889165214911706 0 0 0
52 1 0.0991877980562895 5.592540567234232 10.831672971615815 0 0 0
401 1 20.420444091030358 4.041178542052679 12.157452836205714 0 0 0
54 1 2.845634468014026 8.321442204633096 10.862340518559838 0 0 0
55 1 1.4953116863359717 6.932889525932728 12.189799199437866 0 0 0
43 1 4.085092519996775 6.815854188149816 9.518601059238867 0 0 0
49 1 4.1215461234334265 9.758197959612657 12.265173346458822 0 0 0
182 1 8.250400969808272 8.230993740995448 11.103144240757977 0 0 0
183 1 6.835073966685125 6.97633324747298 12.464692954739101 0 0 0
171 1 9.555200658357549 6.954603310236188 9.660283690696687 0 0 0
311 1 12.069524781923075 6.91166956169227 12.299986246316836 0 0 0
299 1 15.088010654795859 6.942243759466421 9.747025848998069 0 0 0
310 1 13.499006960403491 8.244555151768646 10.980002083450096 0 0 0
439 1 17.79946792995461 6.7391732069796255 12.042854663494978 0 0 0
427 1 20.385095163314524 6.754697806057312 9.523452802759564 0 0 0
438 1 19.02300776182326 8.33372805431913 10.879519416317892 0 0 0
45 1 1.3624456584137103 9.520931337397949 9.513657056095317 0 0 0
87 1 1.4769711025032133 12.2817392110679 12.29887181383325 0 0 0
212 1 5.4766890837093305 11.051170192156764 10.863563886080293 0 0 0
75 1 4.02582086136756 12.219970606634387 9.569272551281665 0 0 0
173 1 6.880002387642166 9.660998722423015 9.609432869586401 0 0 0
215 1 6.818082358053655 12.367213661813091 12.209249136076663 0 0 0
203 1 9.600401289647168 12.390902618244423 9.461316788428215 0 0 0
340 1 10.873299865476989 11.003725480180565 10.783608530807497 0 0 0
301 1 12.224151032158293 9.515680682651125 9.466349021468242 0 0 0
343 1 12.344093629983261 12.097649846655568 12.300055849319454 0 0 0
177 1 9.711746039347885 9.622204696043797 12.470153028538133 0 0 0
331 1 14.944955293623762 12.290794838101835 9.523549467301017 0 0 0
305 1 15.030831149465024 9.456077337923771 12.368738330739436 0 0 0
429 1 17.372124228299292 9.467200270338978 9.4607236752183 0 0 0
468 1 16.267562586503104 10.881605808766247 10.952968756668698 0 0 0
471 1 17.76581790961939 12.135383859348961 12.218630983848604 0 0 0
84 1 0.01683995035548799 10.918777718689155 10.917497329110809 0 0 0
433 1 20.28114449463383 9.616190382210002 12.181278217798779 0 0 0
77 1 1.2806080998192806 14.944893598359846 9.584541775346848 0 0 0
86 1 2.7427674204520924 13.613267062478569 10.905883366719436 0 0 0
81 1 4.1854359713036615 15.066943984295005 12.282445491484262 0 0 0
205 1 6.850759084151134 14.970721601423946 9.43552479744263 0 0 0
214 1 8.198518438108678 13.647094022163444 10.806628741276796 0 0 0
209 1 9.762173227253301 14.962333036349898 12.190344359897368 0 0 0
333 1 12.371597006304325 14.900178370428593 9.576865003393074 0 0 0
342 1 13.657039203664619 13.479483565242504 10.982203246165636 0 0 0
337 1 15.19838569139519 14.825560004445393 12.278745843435194 0 0 0
461 1 17.636019740356534 14.943184296698485 9.601008591012603 0 0 0
459 1 20.203590398223778 12.079703007276832 9.568737014123807 0 0 0
470 1 19.09862773499715 13.627930204076018 10.909046361301623 0 0 0
465 1 20.552667915491874 14.78386603382802 12.120939912838692 0 0 0
119 1 1.4005035412320845 17.726165391683256 12.321894712420722 0 0 0
107 1 4.209017093102539 17.680814943250734 9.376085598790349 0 0 0
244 1 5.361149322530054 16.276950721792517 10.8791084152061 0 0 0
247 1 6.857957341869137 17.454441158481842 12.202462375542192 0 0 0
235 1 9.650030194223184 17.574298204727473 9.444730331615125 0 0 0
372 1 11.079385629958853 16.305537889720537 10.859837054518838 0 0 0
375 1 12.294275107958008 17.584429949631435 12.38266324729507 0 0 0
363 1 14.91511168445405 17.668579042850094 9.667224690403643 0 0 0
500 1 16.330979829046974 16.176983710035486 10.945149783264245 0 0 0
503 1 17.725218716615508 17.49554423257541 12.2531852094282 0 0 0
116 1 21.657060531554208 16.31166860636081 10.938129555080403 -1 0 0
491 1 20.278907613798435 17.689454102837725 9.56055677316745 0 0 0
118 1 2.8664824299573666 18.990978940993475 10.779715730012713 0 0 0
148 1 5.540126108255485 21.562797112847317 10.89861161623233 0 -1 0
113 1 4.2043448400348415 20.267950976557934 12.294836275805569 0 0 0
237 1 6.837892491231518 20.379845680345625 9.229530213870472 0 0 0
246 1 8.20666038520191 18.90032035945414 10.56840250660117 0 0 0
241 1 9.539252524276398 20.245086019497283 12.160332310822138 0 0 0
365 1 12.240012652625387 20.26887509655956 9.539285850960182 0 0 0
374 1 13.582851301977097 19.01841456405716 11.005693231544704 0 0 0
369 1 14.931218563130802 20.41755697094994 12.237968973179804 0 0 0
404 1 16.237576445147468 21.718049548949285 10.930651164658933 0 -1 0
20 1 21.712355108591733 0.11709392915843864 10.95249344548353 -1 0 0
502 1 18.73148549917233 19.070457129274445 10.733774770625544 0 0 0
497 1 20.258926441078923 20.310655754049858 12.153898586013636 0 0 0
19 1 4.134201226219473 1.4304161844264474 14.85768146545006 0 0 0
146 1 5.391208029173741 2.7627080953284353 13.410355431122644 0 0 0
152 1 8.208561545268081 21.4902176280201 13.422791536826194 0 -1 0
147 1 9.352810523262423 1.2331791145189392 14.957366075423568 0 0 0
274 1 10.643554217578478 2.658780553471041 13.785336383810105 0 0 0
275 1 14.94785675858944 1.4846573251060389 14.916363670850831 0 0 0
280 1 13.656357872541031 0.0909692138289806 13.624282954331584 0 0 0
402 1 16.203042794363203 2.688125766055232 13.325890955549866 0 0 0
18 1 0.07406338627242803 2.6317537456679143 13.516464245238792 0 0 0
403 1 20.535139325917346 1.3300023870100404 15.04076916467456 0 0 0
408 1 18.984455725729262 21.756697519102158 13.418887161489959 0 -1 0
21 1 1.3933968423977987 4.094915773379688 14.786333129199575 0 0 0
56 1 2.702269301978979 5.467362761101084 13.58755069040456 0 0 0
149 1 6.716472189926257 4.027447171462323 15.100046870386487 0 0 0
184 1 8.130938043916228 5.447293205339603 13.84462500139037 0 0 0
273 1 14.811787740319726 4.088726078980972 12.293013176848484 0 0 0
277 1 12.163022415101942 4.011983733200047 15.028528131528509 0 0 0
312 1 13.30472978456165 5.430672255351988 13.573203814010387 0 0 0
405 1 17.703152514278962 4.134513829242469 14.714812868526623 0 0 0
440 1 19.12070651582844 5.521786485884924 13.48887642980076 0 0 0
50 1 0.0801453660763385 8.423959935949544 13.506192594682352 0 0 0
51 1 3.993132892106747 6.871979143229822 14.995728386651031 0 0 0
178 1 5.378147479123611 8.231420548923099 13.661735033933871 0 0 0
179 1 9.65192233115047 6.7471831584483 15.193076009834504 0 0 0
306 1 10.94414799051774 8.111180999347585 13.78899564293263 0 0 0
307 1 14.76295337879737 6.804786548668887 14.914933881793724 0 0 0
434 1 16.282823774989854 8.045205983868211 13.494398179074098 0 0 0
435 1 20.568859928133808 6.79746498251002 14.792021185442746 0 0 0
53 1 1.3341299473216621 9.780453259539447 14.899965073863884 0 0 0
88 1 2.856982519856542 11.02380560704197 13.730450520413196 0 0 0
83 1 4.2483393209912705 12.371293667731662 15.011272421521577 0 0 0
181 1 6.817368700767553 9.461540168656848 15.033457966806075 0 0 0
216 1 8.07706930741786 10.91350841488801 13.501628689142205 0 0 0
309 1 12.175349701908369 9.615010545397112 15.115520081793658 0 0 0
211 1 9.493574836907172 12.119656355309813 14.953858435671563 0 0 0
344 1 13.657288075268484 10.876995856412623 13.736245357772633 0 0 0
339 1 15.166185432786731 12.256673858576221 14.898481987574401 0 0 0
437 1 17.63641142852597 9.494833724458312 14.83476219793876 0 0 0
472 1 19.012859882210794 10.881992120717879 13.628417506095174 0 0 0
467 1 20.4545192943666 12.341966501611244 14.947537315099485 0 0 0
85 1 1.525088017699778 15.00553923306381 15.112514032167992 0 0 0
82 1 0.1932592376436446 13.710669526552811 13.69360306874721 0 0 0
210 1 5.4659567785555145 13.653970897914407 13.57497013819811 0 0 0
213 1 6.960756905525287 14.838335841819106 15.00662499110981 0 0 0
338 1 11.037624125176169 13.571064383680646 13.547303873312035 0 0 0
341 1 12.298458248559804 14.96978367386493 15.07871232109486 0 0 0
466 1 16.566352563445836 13.522622764777175 13.65134334040668 0 0 0
469 1 18.008166504144345 14.96186165641638 14.847433368158718 0 0 0
120 1 2.943776360331662 16.498124220587336 13.647149365622226 0 0 0
115 1 4.3105144520893095 17.667720474124277 15.066336000855056 0 0 0
248 1 8.334160625886005 16.13237500529189 13.61881094540868 0 0 0
243 1 9.607759535587752 17.475737430927172 14.987332841141617 0 0 0
371 1 14.966673658108999 17.56366632092542 14.976066689485979 0 0 0
376 1 13.672819307125074 16.243548501674127 13.58933562964775 0 0 0
504 1 19.339345929416258 16.12846821988107 13.50645999448719 0 0 0
499 1 20.49087415609716 17.759005043694163 15.01330793375706 0 0 0
24 1 2.909468985811361 21.75272771339772 13.538252307733352 0 -1 0
117 1 1.660431564294394 20.374091856490022 14.988178213859133 0 0 0
242 1 5.579470192114184 18.89398077144129 13.577897665400162 0 0 0
245 1 7.088165498978183 20.327378651231182 14.93683389035403 0 0 0
370 1 10.851506475014016 19.00660493211318 13.637657384152229 0 0 0
373 1 12.276288950778277 20.34309762951066 14.887446878652128 0 0 0
498 1 16.29499267999851 18.939537831312908 13.570816515535007 0 0 0
501 1 17.606141788319544 20.48433459364912 14.914108511043045 0 0 0
114 1 0.029885907554115604 19.04922690120043 13.532375427642238 0 0 0
31 1 1.4960571177968225 1.4096920875796348 17.771557964957363 0 0 0
30 1 2.649137042889 2.7445795187157445 16.266116486952875 0 0 0
158 1 8.177254377269644 2.7085388431221737 16.357981705170168 0 0 0
159 1 7.143024010687648 1.2329896258397852 17.595383336249206 0 0 0
287 1 12.365907864476567 1.1233224264683925 17.67603187759913 0 0 0
286 1 13.537884368072623 2.7144491539333453 16.204758349245385 0 0 0
415 1 17.67378369473244 1.384988877427621 17.63765463059696 0 0 0
412 1 16.264482412884696 21.620342834104065 16.273278115797385 0 -1 0
414 1 18.96827234674875 2.597224113483536 16.143471231491148 0 0 0
25 1 4.006158869502665 4.098250888248008 17.68070759064094 0 0 0
188 1 5.485117920926651 5.475641919138957 16.31134077145025 0 0 0
153 1 9.569565396039225 3.9658404046034965 17.72599707429698 0 0 0
316 1 10.95503471591698 5.256336360759695 16.46671389037848 0 0 0
281 1 15.04674794515291 4.109162820526273 17.568964582943238 0 0 0
444 1 16.51293786900193 5.552982789755593 16.316646686611172 0 0 0
60 1 0.043184761880240494 5.356980676450005 16.245002087146883 0 0 0
409 1 20.426856282674045 3.86190445144522 17.43678255264068 0 0 0
63 1 1.3658625340667205 6.650226797427311 17.510900736126374 0 0 0
62 1 2.6977068202957897 8.225376813163612 16.29543685319981 0 0 0
190 1 8.304043205747844 8.126272989651289 16.373711327072407 0 0 0
191 1 6.9400750443215165 6.627733947008439 17.793596465039027 0 0 0
319 1 12.286626273278298 6.688459200190675 17.66261878023657 0 0 0
318 1 13.517818602542585 8.253220889732477 16.320864880924354 0 0 0
447 1 17.76722301924132 6.870879427851239 17.53596234167656 0 0 0
446 1 18.94611347858562 8.102401827521014 16.157522610705673 0 0 0
95 1 1.4686119858148114 12.146489661051685 17.816299282674194 0 0 0
57 1 4.173398801156642 9.562201357958987 17.688222321409704 0 0 0
220 1 5.5569453649036475 10.799987903222037 16.40670417999047 0 0 0
223 1 6.875795596639943 12.168453497115264 17.81706961890212 0 0 0
185 1 9.649833298616217 9.53072377275555 17.839504359427156 0 0 0
348 1 10.949764225385358 10.872490301786012 16.395705888918087 0 0 0
351 1 12.318959719600645 12.164316484014613 17.84351660735753 0 0 0
313 1 14.975515051900194 9.562842689312236 17.729352154310796 0 0 0
476 1 16.490312070252656 10.855385677232398 16.41400901882246 0 0 0
479 1 17.771188647664985 12.305456534492702 17.736045634496985 0 0 0
92 1 0.016302293429980352 10.991364800684838 16.359393472953116 0 0 0
441 1 20.27179889180718 9.586764848179602 17.41639459022487 0 0 0
94 1 2.833063269383032 13.628750122203005 16.487360511935275 0 0 0
89 1 4.106966491447412 15.073096777797968 17.64185588560086 0 0 0
222 1 8.251687964985365 13.494540259186087 16.341040735587693 0 0 0
217 1 9.631810711418453 14.901681844837059 17.59422689240454 0 0 0
345 1 15.113729463875034 14.963790465965138 17.670115811884862 0 0 0
350 1 13.827262962510053 13.503370292251283 16.305726714726035 0 0 0
478 1 19.096429212871204 13.628171384562055 16.399536457372673 0 0 0
473 1 20.716395520127538 15.128828495661361 17.620517331907394 0 0 0
127 1 1.2948230847509286 17.96281011796234 17.795334435164953 0 0 0
252 1 5.610249096928799 16.220216038713275 16.374817223147776 0 0 0
255 1 6.819836910564281 17.77929357527549 17.648776445166188 0 0 0
380 1 11.060490381885137 16.33562968788835 16.40405679303112 0 0 0
383 1 12.195624448343484 17.63731198705616 17.77452026576587 0 0 0
508 1 16.60949402104948 16.285963831143 16.194566026888943 0 0 0
511 1 17.774300953522424 17.67297851376735 17.62173932088541 0 0 0
124 1 0.16219553087966787 16.608147660271914 16.36794683631097 0 0 0
126 1 2.7678940237498297 19.030318148596013 16.45378235905949 0 0 0
156 1 5.428702353461573 21.645368945609835 16.23720734093817 0 -1 0
121 1 4.0768291196454225 20.406005450093783 17.8782050755847 0 0 0
254 1 8.30307331788477 18.974792314978643 16.37622421092744 0 0 0
284 1 10.978028572564282 21.704960753871404 16.339116884954237 0 -1 0
249 1 9.680081035592984 20.25719789581022 17.770976586401062 0 0 0
382 1 13.529747644831847 18.98730963206063 16.425092712165952 0 0 0
377 1 14.969453054039494 20.322253417113902 17.764572190336565 0 0 0
28 1 0.2663540652014902 0.0005711995970635953 16.259577871337516 0 0 0
505 1 20.440368461630435 20.530170887174037 17.631667663273372 0 0 0
510 1 19.04413774633394 19.076615207243908 16.361309152404218 0 0 0
7 1 2.6102761125354306 2.6478294497173716 0.03732242410283604 0 0 0
32 1 2.7702350081477145 21.689397286013616 19.006077258242318 0 -1 0
154 1 5.581260465394361 2.516467681506163 19.043558324557335 0 0 0
27 1 4.039856216817202 1.3259671418290209 20.459893062118038 0 0 0
134 1 8.33267599064522 2.776312924488247 0.03932459376616393 0 0 0
160 1 8.445771429480912 21.638634614763976 19.241875952059225 0 -1 0