LAMMPS (10 Sep 2025)
OMP_NUM_THREADS environment is not set. Defaulting to 1 thread.
  using 1 OpenMP thread(s) per MPI task
Loaded 1 plugins from C:\Users\lmike\AppData\Local\LAMMPS 64-bit 10Sep2025 with GUI\plugins
# LAMMPS input generated from LammpsInputFile with pymatgen v2025.10.7

# STYLES
units metal
atom_style atomic

# SET UP CALCULATION
read_data starting_config.dat
Reading data file ...
  orthogonal box = (0 0 0) to (21.763403 21.763403 21.763403)
  1 by 1 by 1 MPI processor grid
  reading atoms ...
  517 atoms
  read_data CPU = 0.002 seconds
pair_style sw
pair_coeff * * Si.sw Si
Reading sw potential file Si.sw with DATE: 2007-06-11
velocity all create 800 1692594

# CALCULATION PARAMETERS
fix f1 all nvt temp 800.0 800.0 $(100.0*dt)
fix f1 all nvt temp 800.0 800.0 0.10000000000000000555
thermo 100000
thermo_style custom step temp press spcpu cpuremain

# RUN CALC AND WRITE OUTPUTS
dump d1 all custom 100 state_dump id type x y z vx vy vz
run 10000000
Neighbor list info ...
  update: every = 1 steps, delay = 0 steps, check = yes
  max neighbors/atom: 2000, page size: 100000
  master list distance cutoff = 5.77118
  ghost atom cutoff = 5.77118
  binsize = 2.88559, bins = 8 8 8
  1 neighbor lists, perpetual/occasional/extra = 1 0 0
  (1) pair sw, perpetual
      attributes: full, newton on
      pair build: full/bin/atomonly
      stencil: full/bin/3d
      bin: standard
Per MPI rank memory allocation (min/avg/max) = 3.12 | 3.12 | 3.12 Mbytes
   Step          Temp          Press          S/CPU         CPULeft    
         0   800            43125.135      0              0            
    100000   814.17193      13880.982      617.72299      16026.601    
    200000   785.28169      13956.237      443.47455      18981.47     
    300000   765.26153      14987.122      407.80058      20453.9      
    400000   799.6255       15901.705      427.90999      20790.932    
    500000   824.24773      14822.099      512.95959      20163.484    
    600000   814.22662      13795.867      496.50097      19781.445    
    700000   768.19851      15080.094      524.02732      19310.456    
    800000   795.11515      15569.086      527.62532      18894.542    
    900000   804.75908      14633.902      522.59612      18547.377    
   1000000   793.41803      12912.077      514.04532      18260.022    
   1100000   750.31595      13159.317      512.74646      17993.531    
   1200000   812.87763      12669.167      517.71873      17725.214    
   1300000   806.15763      13630.835      511.37017      17484.508    
   1400000   821.92209      11818.939      526.4279       17215.893    
   1500000   777.50167      13086.252      520.2372       16970.574    
   1600000   794.9388       13044.51       531.93525      16709.7      
   1700000   772.16539      12632.446      531.63854      16457.912    
   1800000   777.12226      14487.572      510.11626      16249.355    
   1900000   808.57996      12879.565      527.77752      16014.149    
   2000000   887.86815      13770.32       515.07672      15802.204    
   2100000   821.11271      14443.249      513.525        15594.162    
   2200000   801.38655      14233.388      513.52338      15387.332    
   2300000   801.81259      14186.474      513.85022      15181.139    
   2400000   825.25278      13897.287      522.85486      14965.298    
   2500000   785.14722      13467.578      504.22494      14772.623    
   2600000   778.48075      13565.196      520.12547      14562.258    
   2700000   831.01015      12430.982      518.09883      14355.267    
   2800000   813.71779      13407.386      527.79462      14140.157    
   2900000   843.52635      12749.124      515.20971      13938.147    
   3000000   844.97322      14058.548      527.18353      13726.377    
   3100000   810.50958      13307.514      528.61118      13514.892    
   3200000   778.93369      12153.759      488.60296      13337.718    
   3300000   790.12861      13707.625      527.91805      13127.932    
   3400000   798.76022      14434.099      529.06408      12918.548    
   3500000   826.83419      13131.814      513.52681      12720.948    
   3600000   816.07021      13392.713      506.12302      12528.572    
   3700000   807.34254      13323.05       524.03461      12324.416    
   3800000   751.09748      14393.671      507.28917      12131.238    
   3900000   793.68128      13652.554      522.32779      11928.981    
   4000000   799.33595      14714.295      504.73185      11737.276    
   4100000   754.6326       13929.56       502.98354      11546.249    
   4200000   823.29751      13813.606      516.39991      11347.718    
   4300000   791.44968      13486.579      508.91691      11153.188    
   4400000   790.79783      13121.94       506.09598      10959.963    
   4500000   815.04315      14917.627      515.20684      10762.273    
   4600000   839.15588      13643.673      526.83933      10559.709    
   4700000   757.65046      14495.921      529.99628      10356.412    
   4800000   808.73915      13480.069      510.74637      10161.428    
   4900000   791.70149      14957.827      519.30472      9963.0531    
   5000000   802.4821       14817.948      501.30854      9771.8231    
   5100000   837.52732      13544.539      520.86349      9573.0742    
   5200000   832.7565       13780.95       527.0702       9372.4984    
   5300000   741.40137      12952.036      505.99341      9179.3403    
   5400000   806.32816      14397.93       515.44833      8982.9285    
   5500000   775.62554      13644.154      535.41715      8780.684     
   5600000   772.2489       14386.02       519.11881      8583.5996    
   5700000   792.92955      13505.916      517.57361      8387.1051    
   5800000   841.48542      13063.41       524.10756      8188.9797    
   5900000   786.18033      12849.323      535.05793      7988.389     
   6000000   793.51529      14183.495      537.62444      7787.6601    
   6100000   796.35192      13951.05       519.84339      7591.4815    
   6200000   715.69788      12054.929      524.89158      7394.2921    
   6300000   865.86201      15363.73       526.66084      7196.9386    
   6400000   787.3078       14002.002      518.01246      7001.6019    
   6500000   779.58927      13139.929      522.73759      6805.3962    
   6600000   784.73804      12593.396      504.27645      6612.9469    
   6700000   820.92389      13188.31       509.1971       6419.3789    
   6800000   818.11825      11851.85       524.61474      6223.012     
   6900000   753.26373      12408.869      524.54647      6026.823     
   7000000   808.37751      15931.388      513.32208      5832.5789    
   7100000   817.56403      12303.231      523.01787      5636.8439    
   7200000   838.07139      14349.088      526.44556      5440.7508    
   7300000   779.9192       14474.42       505.65984      5247.7139    
   7400000   818.68202      13838.382      527.37562      5051.6882    
   7500000   793.78882      12965.189      513.56557      4857.5329    
   7600000   785.62661      12513.213      519.07378      4662.7104    
   7700000   781.53897      12272.717      514.96258      4468.4037    
   7800000   813.47399      13804.371      511.58561      4274.4616    
   7900000   797.64711      13530.273      500.91837      4081.5873    
   8000000   837.68767      13376.07       513.30765      3887.3394    
   8100000   843.02925      15024.403      509.97536      3693.3761    
   8200000   743.9366       12590.176      522.81228      3498.3041    
   8300000   795.36012      13976.774      504.22966      3304.7674    
   8400000   807.0689       13053.144      508.42527      3110.8051    
   8500000   808.09635      13301.453      520.29028      2915.9871    
   8600000   770.30847      13400.397      497.52003      2722.662     
   8700000   795.07796      13653.973      510.01137      2528.425     
   8800000   792.03975      12740.991      515.58394      2333.8572    
   8900000   779.68795      12929.875      515.98337      2139.2846    
   9000000   803.04925      14724.353      518.67827      1944.6173    
   9100000   766.72162      13564.747      537.1755       1749.3344    
   9200000   762.20509      12207.623      521.8691       1554.7246    
   9300000   769.61982      14266.86       517.77186      1360.2933    
   9400000   832.36458      12877.897      539.47702      1165.3936    
   9500000   811.55271      14201.327      522.72217      971.00733    
   9600000   803.68528      14306.212      549.52763      776.29641    
   9700000   826.68165      14577.943      567.56954      581.66919    
   9800000   823.33859      12447.328      553.77541      387.5078     
   9900000   822.06268      13646.24       598.90012      193.48338    
  10000000   793.9133       14339.351      589.57113      0            
Loop time of 19324.5 on 1 procs for 10000000 steps with 517 atoms

Performance: 44.710 ns/day, 0.537 hours/ns, 517.479 timesteps/s, 267.536 katom-step/s
99.5% CPU use with 1 MPI tasks x 1 OpenMP threads

MPI task timing breakdown:
Section |  min time  |  avg time  |  max time  |%varavg| %total
---------------------------------------------------------------
Pair    | 19037      | 19037      | 19037      |   0.0 | 98.51
Neigh   | 7.4299     | 7.4299     | 7.4299     |   0.0 |  0.04
Comm    | 44.245     | 44.245     | 44.245     |   0.0 |  0.23
Output  | 152.9      | 152.9      | 152.9      |   0.0 |  0.79
Modify  | 66.138     | 66.138     | 66.138     |   0.0 |  0.34
Other   |            | 16.77      |            |       |  0.09

Nlocal:            517 ave         517 max         517 min
Histogram: 1 0 0 0 0 0 0 0 0 0
Nghost:           1462 ave        1462 max        1462 min
Histogram: 1 0 0 0 0 0 0 0 0 0
Neighs:              0 ave           0 max           0 min
Histogram: 1 0 0 0 0 0 0 0 0 0
FullNghs:        18542 ave       18542 max       18542 min
Histogram: 1 0 0 0 0 0 0 0 0 0

Total # of neighbors = 18542
Ave neighs/atom = 35.864603
Neighbor list builds = 9734
Dangerous builds = 0
write_data FINAL_STRUCTURE
System init for write_data ...
Total wall time: 5:22:04
