LAMMPS data file via write_data, version 29 Aug 2024, timestep = 10000000, units = metal

502 atoms
1 atom types

0 21.77481 xlo xhi
0 21.77481 ylo yhi
0 21.77481 zlo zhi

Masses

1 28.085

Atoms # atomic

7 1 1.4515148210357665 1.5021257975945415 1.4168097362900596 0 0 0
8 1 2.7393165541706757 21.694802636100718 2.6340963782118165 0 -1 0
6 1 2.8676791737781486 2.6365852189189094 21.709828285291913 0 0 -1
2 1 21.70662917942487 2.536920595395834 2.8055089885395463 -1 0 0
4 1 21.725502749882494 0.066631641374439 21.715753492705165 -1 0 -1
130 1 5.260893593414931 2.662579360712115 2.9097405431321155 0 0 0
132 1 5.428859996227567 21.434917002656967 0.052184032798496816 0 -1 0
135 1 6.787099619044897 1.2922138636947937 1.53773258406686 0 0 0
136 1 8.38595904450952 21.771827777334913 2.8219677801624927 0 -1 0
134 1 8.196573198234491 2.5659991702874465 0.11364767086770144 0 0 0
257 1 11.155727238886865 2.6541142961691406 2.6544374954692493 0 0 0
262 1 12.50691763162678 1.2765345446403662 1.410382562060482 0 0 0
391 1 17.508140801746645 0.9923450785709312 1.1341285662481422 0 0 0
390 1 16.538623926443027 2.6524447646907845 2.6474559184639044 0 0 0
40 1 2.6303635544029595 5.494370499980921 2.6964217890993627 0 0 0
1 1 4.123271882703884 4.116349812092084 1.375933604758277 0 0 0
168 1 8.449516847517549 5.421730603220838 2.575636966868121 0 0 0
129 1 9.652673953881202 3.847641287841215 1.366844858219036 0 0 0
291 1 11.06575103241308 5.32453890763564 21.665775897751235 0 0 -1
295 1 13.893791680185224 5.271020454192568 2.792975943661285 0 0 0
419 1 15.122746282643012 3.892950370809578 1.2815862762451824 0 0 0
412 1 16.399285677758158 5.2539632408240236 21.723347400522126 0 0 0
36 1 0.034207991422327666 5.242997675209724 21.744947669462306 0 0 -1
423 1 19.200370527668795 5.572403628536699 2.6782160606678276 0 0 0
384 1 20.441471780424333 3.987800224536043 1.2567758119635555 0 0 0
39 1 1.2045680374239502 6.661150783568839 1.2474669353681351 0 0 0
34 1 0.15268270488316707 8.351333148073572 2.6517862146246944 0 0 0
162 1 5.41373233413808 8.149109657857716 2.5082405946069115 0 0 0
167 1 6.852744667914996 6.7867307062075675 1.3982520728784635 0 0 0
166 1 8.085499654625144 8.043903579233156 21.707111406143618 0 0 -1
289 1 11.07565587704936 8.292572656778045 2.85952686321961 0 0 0
294 1 12.318454654681927 6.8585706189615125 1.4066798490568695 0 0 0
422 1 17.625290685794223 6.6772295582153856 1.3339900926691506 0 0 0
417 1 16.541230559416217 8.30987870198034 2.74802801784606 0 0 0
416 1 19.18123649636018 8.043820079351931 21.77356945691239 0 0 -1
72 1 2.8127153508265814 11.109256825045732 2.6835548619552423 0 0 0
71 1 1.137343749923748 12.258904760329688 1.3591329623850987 0 0 0
33 1 4.1324499840561595 9.470534346051856 1.1956294847325724 0 0 0
200 1 8.275629262303031 10.86094814631047 2.9088676297561507 0 0 0
199 1 6.816097949219849 12.006138255770313 1.4612691060748804 0 0 0
161 1 9.525204299848495 9.441635856228372 1.4412759920870988 0 0 0
326 1 12.24541472917509 12.178277290787996 1.5228155740944462 0 0 0
288 1 15.029315586453832 9.558311482424434 1.4134053923186287 0 0 0
327 1 13.689430855302795 10.88921405221015 2.8508725092570644 0 0 0
455 1 20.321873671318873 9.608005084183842 1.5331193424458027 0 0 0
450 1 18.77914611938815 10.908819479433923 2.783678000037994 0 0 0
448 1 21.6487135802746 13.879670778210084 2.5162066007934105 0 0 0
65 1 3.9112816550174876 15.145197100199631 1.4811487413264748 0 0 0
194 1 5.467970134500053 13.597516394850551 2.585428112078727 0 0 0
355 1 9.413625649453742 14.88493890843082 1.5130937519326126 0 0 0
321 1 10.988483957896209 13.605611881671233 2.9431772861605903 0 0 0
359 1 14.639486839658296 15.244938146938475 1.7860774721986472 0 0 0
449 1 17.59561045672102 12.613341131388584 1.6109999828076869 0 0 0
322 1 16.420549322613667 14.080669113967078 3.0633256224090464 0 0 0
487 1 20.039097368700205 15.307422257634318 1.5692139823517033 0 0 0
103 1 1.1940670894310423 17.831009571864104 1.527111777973103 0 0 0
104 1 2.722928007851448 16.550657456198266 2.802407081531934 0 0 0
100 1 21.668807041003326 16.529421790837066 0.250474472404143 -1 0 0
232 1 6.831405523095427 17.681214011399167 1.3343378604795844 0 0 0
193 1 8.126754344417794 16.300074411480907 2.857680239026242 0 0 0
348 1 10.862481372582076 16.24851960627795 0.2945511775219183 0 0 1
358 1 12.50042532572933 17.23869091835736 1.9474752059504352 0 0 0
357 1 13.907977856547879 17.941242425670477 21.706462816494348 0 0 -1
486 1 17.293372846527276 18.07475492985452 1.7134876364925264 0 0 0
320 1 15.964969157165367 16.53941700040247 0.30521369695737705 0 0 0
482 1 18.90834683745507 16.864599332847764 2.965660768123677 0 0 0
98 1 21.623587332558216 19.21260083073371 2.8243931425376823 -1 0 0
97 1 4.0325586234726165 20.34605252879402 1.5149302358802708 0 0 0
226 1 5.50838306562369 19.011866539939376 2.6098849274115756 0 0 0
230 1 8.340006133262479 18.9150804277884 0.16188582991907452 0 0 0
353 1 11.036362875991935 18.87523421415454 2.6742764982110305 0 0 0
225 1 9.687741444963912 20.375733551130015 1.3046539205747099 0 0 0
259 1 11.099023189585479 21.704928160713894 0.024400510480899962 0 -1 0
352 1 15.07110462609188 19.824787596039897 1.2601751319012193 0 0 0
263 1 14.078355157421754 21.667787105924887 2.6821947968469924 0 -1 0
484 1 18.795567442918028 21.282116198612787 2.7119926619552435 0 0 0
481 1 16.72699891598746 19.88737431429353 3.2432833484510026 0 0 0
387 1 16.176514567539 21.31468619324577 21.510965097023167 0 -1 -1
480 1 20.277527426814007 20.312296478110923 1.1445431497114051 0 0 0
14 1 2.516031994657063 2.750019983570595 5.489178616811886 0 0 0
3 1 3.9964703514544895 1.256817611134434 4.255764806553903 0 0 0
142 1 8.224240388903132 2.681439245323413 5.369730251880212 0 0 0
131 1 9.787979424516925 1.4507479095318285 4.158509933316461 0 0 0
269 1 13.748734041433766 2.7442696467316643 5.398540654124201 0 0 0
258 1 15.326770724797733 1.3347848538311637 4.282554197483522 0 0 0
395 1 16.861698752224683 1.058017541581166 6.144115639434703 0 0 0
397 1 18.5727837428432 2.5948031029994856 5.390252348513019 0 0 0
386 1 20.058950737797996 1.2881790181987312 3.9534563908620712 0 0 0
5 1 1.109963757323536 4.035652629398775 4.125945060065569 0 0 0
172 1 5.699985581826689 5.380701136507909 5.375690240321186 0 0 0
133 1 6.97487826958632 4.0389260203331965 4.004235796621699 0 0 0
299 1 11.043801917953688 5.411256259936168 5.431231205336685 0 0 0
260 1 12.356960462233728 3.9756826817330513 4.203857333809604 0 0 0
385 1 17.741077214498873 4.197046050402111 4.028783785086292 0 0 0
388 1 16.373164699403176 5.449076496547597 5.576212972663503 0 0 0
44 1 21.565553447108563 5.415459344467821 5.542791019268195 -1 0 0
46 1 2.6603242485758374 8.158560233107044 5.433503416486332 0 0 0
35 1 4.216282379449691 6.87284187940788 4.055084577775273 0 0 0
174 1 8.28461391845979 8.191030613245953 5.426228232507836 0 0 0
163 1 9.767092540747152 6.755600560854723 4.066832950340872 0 0 0
301 1 13.932730711657417 8.103132578452392 5.493345050458408 0 0 0
290 1 15.109757910211256 6.817127592415434 4.084136272218058 0 0 0
429 1 19.118997761175734 8.276503715401192 5.732694332883222 0 0 0
418 1 20.507787315331232 7.027350552471869 4.1919919751924635 0 0 0
37 1 1.3716920878841852 9.764212462520925 4.122352567639981 0 0 0
76 1 0.010985989814671332 11.072377502505423 5.675422894516525 0 0 0
204 1 5.502296476137827 10.891961849000674 5.3251729501185 0 0 0
67 1 4.15228502736878 12.387006783989358 4.055626610944038 0 0 0
165 1 6.783766333308071 9.511140552436201 4.0366240054920475 0 0 0
331 1 11.014812381910978 11.265889483557144 5.582698965912716 0 0 0
292 1 12.50298025937367 9.570309367796883 4.352127138039028 0 0 0
333 1 15.073133632110254 12.473300521776737 4.269690743420393 0 0 0
420 1 17.809339704858502 9.631446534763352 4.416832698560468 0 0 0
459 1 16.37348023187525 11.050442000621771 5.596452852153018 0 0 0
66 1 20.500271081898585 12.404812733868546 3.8451099127264032 -1 0 0
69 1 1.0521031172452886 15.239997606359141 4.042987528208479 0 0 0
78 1 2.682554655789332 13.71253281847289 5.406520787047242 0 0 0
197 1 6.6963852123546594 14.88729079034559 4.057783622443435 0 0 0
206 1 8.097649712239447 13.693141053826462 5.353248318327614 0 0 0
195 1 9.608503547135742 12.373570591382833 4.210269623114858 0 0 0
324 1 12.476453687695093 15.396688210377018 3.8731866857419854 0 0 0
491 1 13.68943983386129 14.00910907849741 5.427256429929327 0 0 0
452 1 17.90101787839618 15.403596653845083 4.3982880659888055 0 0 0
461 1 19.168468301119766 13.785218652043278 5.4014617706924986 0 0 0
456 1 21.724574642684768 16.635544765043914 5.377484797250993 0 0 0
99 1 4.207459837054443 17.773050747121882 4.033349223167205 0 0 0
236 1 5.460774236709548 16.403237776998598 5.433239832255116 0 0 0
227 1 9.484210938890602 17.62716425439966 4.158936218772442 0 0 0
363 1 11.024307786180213 16.49755474239222 5.407762120964067 0 0 0
108 1 20.206427553774336 18.04691872105874 4.440756484213036 -1 0 0
101 1 1.298492595298206 20.565584490784552 4.099760623746431 0 0 0
110 1 2.6663142779655944 19.115695938039966 5.369555759827624 0 0 0
140 1 5.427096583462503 21.772623250137404 5.450620239456809 0 -1 0
238 1 8.296727707827994 19.039317708244536 5.547664253605644 0 0 0
229 1 6.951267842877591 20.33092357528514 4.037064388139171 0 0 0
267 1 11.00280544088496 21.739708565721845 5.5609940241595295 0 -1 0
356 1 12.462218432753085 20.462914069787022 4.120593993410252 0 0 0
365 1 13.901324652733939 19.633702105858614 5.949455380105656 0 0 0
354 1 16.319468782564705 19.071609792473858 5.433543970004406 0 0 0
12 1 21.288120273814023 21.611599334505687 5.37251288420777 -1 -1 0
488 1 19.827414298623015 19.790780960386197 6.018126581453831 0 0 0
15 1 0.7498332940600921 1.356253710843914 6.756849995787358 0 0 0
138 1 5.479899870431158 2.8027680363639496 8.10879232773118 0 0 0
143 1 6.696851385701394 1.5653467794225127 6.649912711846823 0 0 0
144 1 8.096119976732936 0.25057105164272997 8.001382812670792 0 0 0
265 1 11.264568267962357 2.9665174634513525 8.210653941331694 0 0 0
270 1 12.425032325025102 1.3849065894204566 6.80855034872533 0 0 0
393 1 15.097999845465404 1.065116122923017 9.38232828909931 0 0 0
398 1 16.494954060264472 2.477132475455481 8.168284680626497 0 0 0
10 1 21.429732064852455 2.672188613078913 8.6787193169142 -1 0 0
48 1 2.593855294345883 5.508019599611417 8.060487159547483 0 0 0
9 1 4.003328409459419 4.190793182467667 6.666432951472244 0 0 0
176 1 8.272502159014092 5.512449122727169 8.184956691136167 0 0 0
137 1 9.711992646693018 4.255786069147187 6.911276331224185 0 0 0
264 1 15.155059215599374 3.767434588940234 6.954478420597158 0 0 0
303 1 13.584634881650478 5.380530198912455 8.185223842343213 0 0 0
431 1 17.905844581176826 3.9779012963229214 9.366329184430246 0 0 0
392 1 20.041534135229405 3.8094867590447525 6.926277164874373 0 0 0
430 1 19.175410096456282 5.615267119886386 8.161026046220378 0 0 0
47 1 1.3028551707500666 6.871785196529637 6.733163678401121 0 0 0
170 1 5.550841968298085 8.042526395004122 8.123714684120575 0 0 0
175 1 7.023012353792222 6.805949468799259 6.736876803600631 0 0 0
297 1 10.883367259012843 8.149802893922656 8.039887738565803 0 0 0
302 1 12.399836341080755 6.9409332479611585 6.705738619369175 0 0 0
427 1 17.647887185418522 6.730932354343721 6.888097392167918 0 0 0
425 1 16.322776627964004 8.101478775254325 8.292088749258953 0 0 0
428 1 17.697778736015607 9.77507270599228 9.657207853474565 0 0 0
42 1 0.12349843679903097 8.164443891573153 8.187510341882845 0 0 0
80 1 2.782328856317521 10.850220148741688 8.056881338078785 0 0 0
79 1 1.3811682405705292 12.45168782025258 6.888911455620927 0 0 0
41 1 4.194957198697296 9.48556430240281 6.726232439308478 0 0 0
208 1 8.228371037070518 10.947746396440639 8.132616679293806 0 0 0
207 1 6.745560696566041 12.334877628616782 6.789155648111713 0 0 0
169 1 9.737641309570355 9.681833775313308 6.7219427535409215 0 0 0
296 1 15.113614351310305 9.552185216853745 7.00134465073484 0 0 0
335 1 13.571141104755673 10.792734621669801 8.20779356931718 0 0 0
462 1 17.61147984974266 12.505856606515449 7.047727729437895 0 0 0
424 1 20.515325981128182 9.569078936894638 7.042131813021716 0 0 0
463 1 19.20397227305263 10.996073306008597 8.32383634067891 0 0 0
74 1 21.769610490559685 13.925227913446355 8.063332085732068 -1 0 0
73 1 3.869076285579638 15.265828366210036 6.734747766324365 0 0 0
202 1 5.3819662927985155 13.867164356680648 7.990912372116082 0 0 0
201 1 9.642757673225216 15.069243722555186 6.676541378543531 0 0 0
329 1 11.026853171702438 13.87035123523559 8.094785668236286 0 0 0
334 1 12.414777850719307 12.503694420774744 6.8149430983145605 0 0 0
494 1 15.04470300806005 15.303179793891974 6.8965505410094865 0 0 0
457 1 16.188699810365957 13.902141467185226 8.481663200997778 0 0 0
495 1 20.340062090985143 15.376896642930934 6.867606568401773 0 0 0
111 1 1.118851956465308 17.944983484417453 6.8766524645849865 0 0 0
112 1 2.78721907292155 16.684508946163064 8.087230186918253 0 0 0
239 1 6.8670478668973445 17.776723108175613 6.672846634398759 0 0 0
240 1 8.164068837079322 16.287759209820024 8.069355259905135 0 0 0
366 1 12.358174986614216 18.008947397160956 6.88551661465132 0 0 0
367 1 13.777818428526963 16.64112379306091 8.374170998475144 0 0 0
493 1 17.000084655617165 16.636285050492504 6.306213582376203 0 0 0
490 1 18.835192748378706 16.61281671772617 8.20883724277567 0 0 0
501 1 20.448305915230478 17.90955094345906 9.52626964776914 0 0 0
16 1 2.4133197002084956 0.051995172246190435 7.995188535592718 0 0 0
234 1 5.484298642969622 19.23601270049711 8.052739611716513 0 0 0
105 1 4.05644136463639 20.399774964422143 6.60127248290145 0 0 0
233 1 9.44029459201492 20.584658616046585 6.808791385816581 0 0 0
364 1 10.913677730991033 19.27090861684787 8.126789148210813 0 0 0
271 1 13.736828845069372 21.478150524447834 7.935135384803797 0 -1 0
360 1 17.57947531564217 20.427710421624518 6.869696072673811 0 0 0
489 1 17.084545498023438 19.850210748123672 9.389938179312018 0 0 0
106 1 21.278024998098715 19.41119894025494 7.998878017900275 -1 0 0
22 1 2.831478974001591 2.810677713500049 10.774689163250653 0 0 0
23 1 1.599887570366982 1.2377380839744974 12.10595527037923 0 0 0
11 1 4.004596369870885 1.392309572652734 9.449991648903291 0 0 0
148 1 5.563507886958945 0.02044847330521904 10.921866695693936 0 0 0
150 1 8.357923485281587 2.612577610852455 10.80763815763226 0 0 0
151 1 6.890139853568314 1.4429858573394758 12.335286750810496 0 0 0
139 1 9.601682829131711 1.3472601171318586 9.333321688975081 0 0 0
277 1 12.26137889964266 1.271529054501098 12.119953567891809 0 0 0
275 1 10.919341650388024 21.76467483665076 10.758290161029187 0 -1 0
266 1 13.876053251322343 2.44727512541968 10.938672695209148 0 0 0
406 1 17.787695867578595 1.4167395846712256 11.867897874928946 0 0 0
20 1 21.487205373107432 0.7757441941369904 10.800728763191369 -1 0 0
396 1 19.54946943233711 2.6004724057525017 10.451308636735703 0 0 0
13 1 1.5206071261586496 4.143048521688951 9.594226221988032 0 0 0
180 1 5.603342441476845 5.369893716535433 10.866382382898012 0 0 0
17 1 4.3541762156697725 3.945970916114481 12.188389897468227 0 0 0
141 1 6.953663960858788 4.059893828563894 9.52223441844151 0 0 0
307 1 11.04012675690142 5.619588340913748 10.896109792352494 0 0 0
145 1 9.565853782104773 4.1481317778115185 12.247213279547871 0 0 0
268 1 12.410461878960714 4.201016488649546 9.728257972287942 0 0 0
272 1 15.006329723501961 4.168015383153421 12.016506953220992 0 0 0
435 1 16.48701634103389 5.352442360656483 10.667583330704847 0 0 0
52 1 0.17804500773660337 5.683160322004052 10.869509589868361 0 0 0
394 1 20.712386367712654 4.115663517434394 12.07819592895267 0 0 0
45 1 1.4026179518360697 9.507494630064823 9.572100845596877 0 0 0
54 1 2.819872337528015 8.038124947937156 10.956471188961933 0 0 0
55 1 1.4392358656468447 6.726614833261201 12.364537799793453 0 0 0
43 1 3.9623041581304093 6.585143408655449 9.532410019530207 0 0 0
182 1 8.14671310460887 8.317552858890997 10.882357551338849 0 0 0
171 1 9.656099628968892 7.1250184193095905 9.560403745904546 0 0 0
310 1 12.30233656890304 6.897642825275504 12.199548123630333 0 0 0
298 1 14.906718063725792 6.755624346694581 9.60439947934853 0 0 0
309 1 13.566579513661784 8.283067495631334 10.955171253251132 0 0 0
438 1 17.651512911818013 6.867875079728774 11.956159150334877 0 0 0
426 1 20.51396976762951 6.979967073504745 9.545872205254803 0 0 0
437 1 19.204847304182586 8.335876760122984 10.789937257340876 0 0 0
87 1 1.5249908088935848 12.28999546957323 11.908679509781962 0 0 0
75 1 4.106820815778184 12.273075188209821 9.388941255750957 0 0 0
212 1 5.547138960002023 11.031365493085783 10.688658493390742 0 0 0
49 1 4.403706070818201 9.415886562497601 12.091611128026514 0 0 0
173 1 6.943143642476561 9.55215262260255 9.40855802268673 0 0 0
215 1 6.868149646767304 12.495064521689761 12.139744463971637 0 0 0
203 1 9.496120329337563 12.378936395817275 9.329944670117978 0 0 0
339 1 10.692940608890794 10.7863920904111 10.706340977300306 0 0 0
300 1 12.234729033107854 9.35376916901726 9.556161779304768 0 0 0
177 1 9.519859393515201 9.599969972008346 12.126176593232623 0 0 0
342 1 12.030048355520687 12.33040819460491 12.25196328744545 0 0 0
330 1 14.895300575897153 12.205429551407361 9.72627681883591 0 0 0
304 1 15.002052428011785 9.691961209364706 12.215558501468289 0 0 0
467 1 16.426683566811775 10.942179233567478 11.030533927618247 0 0 0
470 1 17.840786351131417 12.383731240875827 12.299300366253988 0 0 0
84 1 0.035206278141292006 10.98511313089008 10.905587348583925 0 0 0
458 1 20.465806903338702 12.414922551847669 9.521808526689652 0 0 0
432 1 20.535329895297014 9.628789490040207 12.24524021176294 0 0 0
77 1 1.1901860997103522 15.345994753344815 9.457835585431113 0 0 0
86 1 2.832525787954569 13.826881087564512 10.683736087909569 0 0 0
81 1 4.107852120233366 14.939595923243463 12.141894052371368 0 0 0
205 1 6.834798306745665 15.110137574248972 9.53005057274762 0 0 0
214 1 8.27874358266092 13.719688878518262 10.883769213266095 0 0 0
209 1 9.507048331355547 14.894043300308937 12.294125001508073 0 0 0
332 1 12.364367510919438 15.03792758674884 9.588840021125243 0 0 0
341 1 13.68515295259931 13.670831763826653 11.079702567922617 0 0 0
336 1 15.088993182302817 14.9750608330377 12.372212245507885 0 0 0
460 1 17.74353458218056 15.26104106175115 9.653018002846611 0 0 0
469 1 19.16901666696124 13.745436143542445 10.923211358793115 0 0 0
464 1 20.542620665982586 15.087374772459588 12.450087021622235 0 0 0
119 1 1.4960391991618724 17.83771103991352 12.333801970267915 0 0 0
116 1 0.006304086429430811 16.41827524109664 11.17253428391647 0 0 0
107 1 4.115959079792702 17.893070301673514 9.573522662497904 0 0 0
244 1 5.481645197705292 16.356096822922005 10.747507738351059 0 0 0
247 1 6.797966247880369 17.667843356512208 11.94114240395744 0 0 0
361 1 9.496664353528137 17.837986121848562 9.354450206825083 0 0 0
371 1 10.823993437981565 16.443297430727096 10.823353212362962 0 0 0
374 1 12.3206127928537 17.66054467480139 12.317388222048656 0 0 0
362 1 15.061940535592676 18.129709242413423 9.651619474645813 0 0 0
499 1 16.303897687007986 16.44742461412734 11.056749626159464 0 0 0
502 1 17.90408507293188 17.594292823116525 12.190248195752297 0 0 0
109 1 1.0164947109844515 20.847399638448632 9.472908618304313 0 0 0
118 1 2.5333642409219954 19.40824895467806 10.788676956201883 0 0 0
113 1 4.201223432840832 20.48191711787594 12.16967710876837 0 0 0
237 1 6.967326959445446 20.553637231456086 9.351041014863059 0 0 0
246 1 8.255515428787167 19.099302961660502 10.99229901815181 0 0 0
373 1 12.396478936516006 20.283138476032757 9.51327580479893 0 0 0
241 1 9.609211387925207 20.29467612279656 12.267587442426722 0 0 0
368 1 13.56624254256612 19.041913871152342 10.960382892817846 0 0 0
497 1 15.194782569360866 20.565498792727066 12.267559164019037 0 0 0
403 1 16.5649726301323 21.514923093927116 10.623922834710749 0 -1 0
492 1 19.012311577426672 19.17466785221975 10.869077845676031 0 0 0
496 1 20.507252716888306 20.62565630104166 11.881607562278608 0 0 0
400 1 0.3252290758456091 2.7935614727623603 13.49567749948152 1 0 0
19 1 4.0166038343089845 1.222374012084049 15.088529656277567 0 0 0
146 1 5.580834739763121 2.675786809145272 13.91036070991741 0 0 0
273 1 9.70603525828658 1.2800630671089608 14.83619902358327 0 0 0
278 1 10.990953305140927 2.760329674539289 13.507124735087336 0 0 0
274 1 15.105609596775306 1.4071995850632961 14.879319041225687 0 0 0
401 1 16.513119275913485 2.7687092643665263 13.392373042686657 0 0 0
18 1 20.76919605924057 1.452033473791158 14.863157269968728 -1 0 0
21 1 1.7463054901065298 4.033852238648398 14.830998948531946 0 0 0
56 1 3.1107465795305327 5.403489581607997 13.592128562978658 0 0 0
184 1 8.249210751306167 5.523317365952742 13.700163486857324 0 0 0
158 1 7.018346852149023 3.963813302719093 15.248545928166019 0 0 0
276 1 12.453168715522002 3.7543540302306777 14.916984972704775 0 0 0
311 1 13.64091819087995 5.361186418149494 13.355373892331363 0 0 0
443 1 17.906276435003097 4.182532096483192 14.679056166680812 0 0 0
439 1 19.17798443087778 5.411083848884713 13.174790931621619 0 0 0
178 1 5.687474735876744 8.11276645912553 13.669981434591676 0 0 0
51 1 4.424967594627386 6.8817665579726315 14.866061378842097 0 0 0
183 1 6.877378238213636 6.893855770329767 12.255379369274557 0 0 0
179 1 9.555363943203394 6.805465402700088 14.949756812398409 0 0 0
305 1 10.862353786153285 8.060298049891246 13.584771601889152 0 0 0
306 1 14.94029523498979 6.679878056925526 14.911380101657741 0 0 0
433 1 16.32697503890173 8.233790308255488 13.562541713869622 0 0 0
50 1 0.07077814252514181 8.133411690743142 13.506926881202038 0 0 0
434 1 20.35946458167971 6.769199948711943 14.750296809181728 0 0 0
53 1 1.5590462112023957 9.58410863618723 14.853631334416034 0 0 0
88 1 2.885240917318101 10.796405506366952 13.386988068275084 0 0 0
83 1 4.218962500886693 12.16338653914396 14.852806873033888 0 0 0
181 1 7.004335252565328 9.517672104311307 14.972429177080032 0 0 0
216 1 8.172438137092794 10.97272005845459 13.525645991407677 0 0 0
211 1 9.687230103307037 12.349977472052489 15.064462718929303 0 0 0
308 1 12.442918252019242 9.452111165856605 14.784863019399626 0 0 0
343 1 13.494003857059653 11.178617090385213 13.534810601322837 0 0 0
338 1 15.021982562967874 12.320138967370804 15.138893669434346 0 0 0
436 1 17.635499207354236 9.361692264156869 14.812944665360526 0 0 0
471 1 19.216238993556008 10.928480434133766 13.69191775710795 0 0 0
466 1 20.679427260916416 12.426872906614044 14.933307948020737 0 0 0
85 1 1.4542465647514276 15.02983119696892 14.828074502590843 0 0 0
82 1 0.32816347104552646 13.564381704592453 13.409343252284394 0 0 0
210 1 5.438292746936774 13.617979104815822 13.54588611260856 0 0 0
222 1 6.999898377519132 14.992580195979528 14.990691272646455 0 0 0
337 1 10.963554910063925 13.601708545313146 13.72798430435709 0 0 0
340 1 12.33166440994131 14.942544176897366 14.907863308079428 0 0 0
465 1 16.37956185694194 13.6800755732256 13.68806776612478 0 0 0
468 1 17.607479101548655 15.11469553203616 15.195395015608307 0 0 0
120 1 2.970037595170421 16.395178819946903 13.564704864772681 0 0 0
115 1 4.1026106111973455 17.791769220520287 14.964007592225203 0 0 0
248 1 8.064339567870578 16.393849247760862 13.428993146742863 0 0 0
243 1 9.600371883839724 17.595079838072603 14.829645336188845 0 0 0
375 1 13.61014292668014 16.25966837565723 13.724969013112386 0 0 0
370 1 14.937166088880478 17.83341498817373 14.952172943831718 0 0 0
483 1 19.086871500724428 16.485392414583185 13.703583061733221 0 0 0
498 1 20.650529809137375 17.811428861023064 14.970004186139699 0 0 0
24 1 2.8331978814409675 21.724715756597014 13.702561636007921 0 -1 0
117 1 1.5035110497254591 20.277533827385582 15.05654945250289 0 0 0
114 1 0.18559812884106108 19.164271162417993 13.541539258542718 0 0 0
242 1 5.540632409802844 18.973777300617808 13.459841541188865 0 0 0
152 1 8.187737396013244 21.565579901790205 13.620193430909818 0 -1 0
245 1 6.831398687843928 20.22061619957942 14.846179821939018 0 0 0
369 1 11.165509043050761 19.07052786458273 13.739773958934418 0 0 0
279 1 13.640561517026654 21.76208743060122 13.507854274586476 0 -1 0
372 1 12.639688168791375 20.40334556106098 15.0485093376547 0 0 0
500 1 16.405701418695443 18.856286414860616 13.49690564125127 0 0 0
411 1 17.687105320123447 20.554857105432504 14.844570223305618 0 -1 0
407 1 19.351585076405428 0.19681242258676396 13.373418287608116 0 0 0
31 1 1.6084398619558662 1.3141300168507692 17.60864153385189 0 0 0
30 1 2.920106506987718 2.7142263062758594 16.365519950761833 0 0 0
28 1 0.15589739154165372 21.68598692489876 16.1987289519439 0 -1 0
147 1 8.397099615680732 2.4242079784863004 16.316528214379503 0 0 0
159 1 6.9386152451604355 1.02823431634187 17.638377104612488 0 0 0
283 1 11.214193058063788 0.09108960747839052 16.28650052426339 0 0 0
286 1 12.52910307930015 1.3669083310203092 17.782294839283274 0 0 0
285 1 13.854479011744196 2.6778605178749535 16.42701365617604 0 0 0
414 1 17.639129710683022 1.5855433125346616 17.505881760773207 0 0 0
376 1 16.346712404443956 21.765033832502148 16.430969079822187 0 0 0
402 1 19.252677703106944 2.800627244381936 16.040055945366777 0 0 0
25 1 4.305485742925597 4.030396227321849 17.703536541114026 0 0 0
188 1 5.568481136509127 5.4980321055703305 16.49357547977705 0 0 0
153 1 9.767302661866403 3.690233462830873 17.76218315440578 0 0 0
315 1 11.088380964473846 5.235990784882333 16.24206551102996 0 0 0
280 1 15.285326363747863 4.022893690619059 17.57836422661966 0 0 0
446 1 16.383140752664026 5.430900982854352 16.26766177343021 0 0 0
60 1 0.16869994909627756 5.61946912952644 16.081074519311517 0 0 0
404 1 20.693757818001988 4.122271674790094 17.51581884308202 0 0 0
63 1 1.4704701119845485 6.9839266094549926 17.594581330484555 0 0 0
62 1 3.0397742715606766 8.364517046336918 16.22616084515031 0 0 0
190 1 8.255174147680677 8.178674923206277 16.353907333499862 0 0 0
191 1 7.069632203132964 6.682931381254671 17.865148096472918 0 0 0
318 1 12.384721243330938 6.780025674175562 17.620726298387773 0 0 0
317 1 13.787048874642457 8.158906333493267 16.242788346303662 0 0 0
445 1 17.861272311975203 6.817701579580011 17.63844806061193 0 0 0
440 1 19.026240661893397 8.215396644664612 16.25901442283299 0 0 0
95 1 1.5312281081718337 12.375191621937226 17.880417880379706 0 0 0
57 1 4.335127243672722 9.440607146870946 17.78729856476325 0 0 0
220 1 5.658922883037754 10.908421393298692 16.365915255708128 0 0 0
185 1 9.894487874458163 9.439096759024743 17.618864767843316 0 0 0
347 1 11.163876260259158 10.81752551532262 16.20602118896376 0 0 0
312 1 15.26254678098194 9.453862754440962 17.69208448252937 0 0 0
475 1 16.490572025755228 10.855777846500024 16.404376991148684 0 0 0
478 1 17.7545670629576 12.437535456861234 17.7790418129227 0 0 0
92 1 0.07456969992984597 10.952004690263017 16.232429059485874 0 0 0
58 1 20.401428525954646 9.664633752955572 17.809838970974184 -1 0 0
94 1 2.890754412402622 13.621583891686129 16.227114906649415 0 0 0
89 1 4.187056943724372 14.896656908012003 17.647223172017704 0 0 0
223 1 7.102057790093463 12.165327459493339 17.848172444254907 0 0 0
217 1 8.418490112253993 13.801205814993759 16.435655013363544 0 0 0
350 1 12.456364766105473 12.18794479457961 17.91772370300317 0 0 0
379 1 9.607804905267972 15.190125453223828 17.83730108551788 0 0 0
349 1 13.667568057239516 13.736941898806299 16.551543427258586 0 0 0
473 1 15.0734614666072 15.290409588062138 17.93332309429135 0 0 0
477 1 19.23078315573046 13.857196988312198 16.52138206945278 0 0 0
472 1 20.31516238015969 15.230209817605694 17.899998894496886 0 0 0
127 1 1.1980566045895895 17.61332229321017 17.916182536379242 0 0 0
252 1 5.422508378155802 16.37778210454563 16.226052738569255 0 0 0
255 1 6.8280125537766025 17.73609053989623 17.524638060804147 0 0 0
382 1 10.986475639164523 16.282579756698386 16.30825532932037 0 0 0
383 1 12.546815600246267 17.586948159794282 17.836795798675208 0 0 0
328 1 16.434425154873022 16.664744006242337 16.302774468885772 0 0 0
213 1 17.57461941752913 18.075677839642996 17.752039471714603 0 0 0
124 1 21.761463978849743 16.3386224773061 16.376791361209882 -1 0 0
126 1 2.713132092754713 18.991527701316254 16.59406983358925 0 0 0
156 1 5.367664766002928 21.386018356950835 16.304592590277352 0 -1 0
121 1 4.255405694392715 20.311189481621824 18.06226432555235 0 0 0
254 1 8.422683824435031 19.053469460730078 16.31247212691018 0 0 0
249 1 9.918751513424985 20.26868247432052 17.70029130854023 0 0 0
381 1 13.842795995011649 18.986495559276012 16.56187224085015 0 0 0
405 1 15.485049431190959 20.33395643819158 17.916452486615526 0 0 0
231 1 19.048389570058518 19.114280215738262 16.13382472280641 0 0 0
408 1 20.43012961774915 20.526304008296904 17.52486061094166 0 0 0
32 1 2.6905145331114966 21.702742218029826 19.149663380620265 0 -1 0
27 1 4.200181362739676 1.1954223398434305 20.416931925418638 0 0 0
154 1 5.652542670413566 2.584620766908551 18.99350756219125 0 0 0
155 1 9.632389243704926 1.1925148826194185 20.49427358309246 0 0 0
281 1 11.13682073255951 2.467621300054555 19.233382568581668 0 0 0
261 1 13.812746975604904 2.5896587849777157 21.689071181538594 0 0 -1
282 1 15.115194021888941 1.285488144753512 20.3407752103091 0 0 0
409 1 16.503001105446344 2.7258168741606057 19.09145000239043 0 0 0
389 1 19.106077415626995 2.6639407028514235 21.7129848802045 0 0 -1
26 1 0.1555903000402152 2.6742322503109435 18.938496431680733 0 0 0
410 1 20.468834723972822 1.3878422959720937 20.159629759563625 0 0 0
415 1 19.083511886807415 0.023991623034575763 18.763939837712087 0 0 0
64 1 2.82181626262816 5.39991039014758 18.908013453545504 0 0 0
29 1 1.4431825776750509 4.060727925369031 20.315940838137458 0 0 0
164 1 5.546947444925399 5.271741948181516 21.73493871063023 0 0 -1
192 1 8.593551643195022 5.261123510776543 18.93923847452852 0 0 0
157 1 7.069850636917315 4.0193994963535005 20.348331186840845 0 0 0
284 1 12.513192211089093 3.942829656706476 20.36179121959217 0 0 0