LAMMPS data file via write_data, version 10 Sep 2025, timestep = 10000000, units = metal

502 atoms
1 atom types

0 21.772397 xlo xhi
0 21.772397 ylo yhi
0 21.772397 zlo zhi

Masses

1 28.085

Atoms # atomic

6 1 1.1395763386040882 1.4349234028043671 1.4767239578295293 0 0 0
5 1 2.575201273057531 2.6992267142422954 0.22804993400485535 0 0 0
4 1 0.12819963068048637 2.941471389137214 2.8419280668411275 0 0 0
2 1 5.35845583983264 2.756420056437477 3.1320521331591347 0 0 0
129 1 6.533056862383979 1.4182283932255204 1.553721256120364 0 0 0
130 1 8.01444091579267 21.74150807077475 2.7327475340193925 0 -1 0
128 1 8.02912452473879 2.847952151500995 0.14872074985765446 0 0 0
253 1 12.159041736854988 1.2163322804587544 1.2538732680896674 0 0 0
251 1 10.834948716302971 2.4912980488308163 2.6438290259415465 0 0 0
252 1 13.566566545904283 2.7167980115137373 21.73045187554047 0 0 -1
381 1 17.632549703013016 1.2185850997431746 1.2166234124477509 0 0 0
376 1 16.26962046786808 2.639502681245676 2.5557394672049494 0 0 0
378 1 16.299047178852803 21.57432142119775 21.602886843178535 0 -1 -1
3 1 21.669536027117168 0.07991309821835431 0.11037228991133131 -1 0 0
380 1 19.06625498876727 2.7846700465340835 0.15133869914576337 0 0 0
33 1 0.2323210355779427 5.374594488219628 0.32414680731111684 0 0 0
1 1 3.8525371836288445 3.994080476007292 1.6721682064211354 0 0 0
156 1 5.487593686859134 5.488844799074501 0.25348776248037563 0 0 0
160 1 8.150901695301034 5.3625677686043876 2.8650416752166192 0 0 0
124 1 9.441518093549353 3.976350506993942 1.5833052589828909 0 0 0
282 1 10.746352398617557 5.411693486608851 0.019831779093228686 0 0 0
248 1 14.990333733903208 4.179200246042392 1.3154122211623407 0 0 0
286 1 13.435085265973086 5.503689568229801 2.7687975170508494 0 0 0
410 1 16.46036641550925 5.423969259657723 21.69237408383087 0 0 -1
375 1 20.575056197666882 4.116161032260456 1.4323365283003606 0 0 0
414 1 18.889045747280864 5.158580919291214 2.9545718853001537 0 0 0
36 1 1.5530332672891038 6.770947766266712 1.674328433380917 0 0 0
35 1 2.6435334252323006 8.012456544586875 0.0585054622594156 0 0 0
409 1 0.1989241839768925 8.090173304835723 3.0316303074566218 1 0 0
31 1 3.920404882509973 9.51860661661996 1.4419009803254297 0 0 0
32 1 5.211540733983277 8.110458464881457 3.058546463625917 0 0 0
159 1 6.569483223799754 6.850934878631871 1.7022035994460536 0 0 0
158 1 8.055740830284952 8.050934234693383 21.768340397974228 0 0 -1
285 1 12.140638074420185 6.7772861751116915 1.4140044077746798 0 0 0
280 1 10.85533075271321 8.045814868352451 2.8430683407815445 0 0 0
284 1 13.519506405016273 8.195754436262186 0.10316845930084104 0 0 0
413 1 17.791775211843934 6.7153073056944885 1.395774178489294 0 0 0
408 1 16.526637544358255 7.977682231317801 2.7840975330992506 0 0 0
407 1 20.530750838849826 9.365653426899557 1.790970651361067 0 0 0
412 1 19.150798179763033 8.245101089656876 0.07935986842443216 0 0 0
66 1 1.405673641731335 12.318528369944477 1.710454152195217 0 0 0
67 1 2.597316745182409 10.727135755125785 2.8904435279844174 0 0 0
63 1 21.764678575523316 11.001562443164328 0.2857695040642848 -1 0 0
187 1 5.316201133205975 10.688454456999738 0.013133797704613443 0 0 0
191 1 8.237559328985467 10.844167249892443 2.7558554481759 0 0 0
190 1 6.569118722182012 12.092526546590161 1.4469342697572989 0 0 0
154 1 9.50963358828067 9.190253340326503 1.4132117474172106 0 0 0
317 1 12.431962684478536 12.205258824013697 1.2794598548400629 0 0 0
314 1 10.83510802448423 10.715645541051554 0.16602418383153253 0 0 0
279 1 15.247029631662423 9.52418409348481 1.3924885284846094 0 0 0
318 1 13.68277611744866 10.73087564085798 2.657288407929098 0 0 0
445 1 17.782800082872043 12.18761904570687 1.3757504621536711 0 0 0
442 1 16.37678949980488 10.991318141587017 21.70425048057653 0 0 -1
446 1 19.115751943368586 10.814476150914533 3.012577808800878 0 0 0
61 1 3.9163783414496534 15.048538339524526 1.4107809327880485 0 0 0
185 1 5.228022118802931 13.651796985581933 2.6698534090301917 0 0 0
189 1 8.183797049766543 13.517349186068172 21.751935193235724 0 0 -1
184 1 9.582822669821706 15.020650911377327 1.433625177366717 0 0 0
312 1 11.064070004257774 13.516754139040444 2.711158080284263 0 0 0
311 1 15.10423052720984 15.112281597607495 1.6119217918502518 0 0 0
316 1 13.834735372326488 13.755133663849652 0.06152245146554714 0 0 0
440 1 16.50087613231552 13.64897466761237 2.7869630750649628 0 0 0
441 1 21.4836259595072 13.671763358905167 2.9080785244370624 0 0 0
439 1 20.294981790954154 15.058112553686016 1.3169187191097447 0 0 0
98 1 1.397294452493046 17.84889444173398 1.3277788989362607 0 0 0
99 1 2.520182062079721 16.27245574819461 2.7566355797730413 0 0 0
219 1 5.376324516765527 16.32807419502482 21.75540773483158 0 0 -1
222 1 6.705261764898472 17.73521901884817 1.5285733257189544 0 0 0
223 1 8.018581929943856 16.281550955615174 2.7306286014305674 0 0 0
349 1 12.321831070865697 17.802590901337826 1.2984376046082233 0 0 0
350 1 13.656064919465996 16.613960709440075 2.8557168141139697 0 0 0
477 1 17.715724378794853 17.667684094411115 1.2635264667970691 0 0 0
474 1 16.461580372402782 16.186835391754315 21.717645304360683 0 0 -1
95 1 0.019550237509868396 16.366611220950183 21.716186836933858 0 0 -1
478 1 18.972282387882508 16.43552539236696 2.8345090257242256 0 0 0
7 1 2.6647397614478128 0.13956843077968273 2.93014453092555 0 0 0
97 1 2.8119205324633234 19.21750251005757 0.06692306146574482 0 0 0
92 1 4.003295784123735 20.65014999286166 1.486823392663755 0 0 0
217 1 5.248624291913713 19.12663823047004 2.792292978668115 0 0 0
126 1 5.33386285911964 0.259364797832756 0.1737220356061501 0 0 0
216 1 9.581861685447667 20.484423407553653 1.494520966247901 0 0 0
344 1 10.856241911782707 18.839225294864875 2.7807866339235194 0 0 0
254 1 13.690542646161358 0.07351401933462043 2.6855415028430936 0 0 0
343 1 15.219905191103972 20.50983287052808 1.5080291466773001 0 0 0
348 1 13.823085646818459 19.010282851739436 0.04255798775008436 0 0 0
472 1 16.438367367127352 19.00671604478685 2.807987550404617 0 0 0
382 1 18.81347924853053 21.75045195368881 2.9372132097095047 0 -1 0
93 1 0.11380571411799778 19.267656549654742 2.844319199466701 0 0 0
471 1 20.47334781793585 20.587686817045217 1.65862640482649 0 0 0
476 1 19.227159701279053 19.26488586403004 0.06913592890117312 0 0 0
13 1 1.9742376288488193 1.619018865364586 5.912528882060625 0 0 0
10 1 0.09722257089342459 0.18430981744177974 5.555026761902398 0 0 0
12 1 3.9553098097424195 1.3665927487111378 4.469234570172131 0 0 0
133 1 5.440493775121062 0.011193630417632893 5.569578980272689 0 0 0
135 1 8.323311413962232 2.471726315917302 5.5006902313462 0 0 0
125 1 9.52246845287242 1.2099436337080671 3.927999556392354 0 0 0
249 1 15.033266090864894 1.261413713587098 4.200292831105807 0 0 0
260 1 13.689932125451731 2.780982655837201 5.305661779128866 0 0 0
386 1 16.383895872130964 0.035371206734024635 5.6080629733247624 0 0 0
377 1 20.340031584260295 1.599270858806263 3.9861429436909126 0 0 0
388 1 19.143781060280904 2.9315348042445053 5.3857113623483714 0 0 0
37 1 2.5035633444085934 5.256461515734655 3.349961893409798 0 0 0
43 1 1.008823872202621 3.879344774639107 4.997262024802289 0 0 0
163 1 5.279163246727396 5.26917021011658 5.7738873438386165 0 0 0
127 1 6.774124580811494 4.153957771746691 4.317879980055036 0 0 0
131 1 10.802015728585692 5.454500073324036 5.428804705613754 0 0 0
290 1 12.17470745451165 4.088032465484234 3.9571194986114757 0 0 0
379 1 17.280661320023597 3.943299691824839 4.128036138309534 0 0 0
418 1 16.23926444393647 5.521945175384222 5.510783462618199 0 0 0
383 1 20.666311583971737 4.7295684474061535 5.937520192669688 0 0 0
34 1 1.8017101850806587 9.179839333793119 4.2994471950692486 0 0 0
42 1 3.6610548959949147 7.010835076840824 4.76673626347217 0 0 0
165 1 8.07157011614947 8.085793964487031 5.624122394755523 0 0 0
155 1 9.480842465386718 6.810543504355573 4.302093743914754 0 0 0
281 1 14.79089683156021 6.772762468930294 4.168940703801007 0 0 0
292 1 13.55135740555 8.178378305054412 5.402008983274058 0 0 0
40 1 20.36980295248181 6.5299190883622975 4.2908399134702755 -1 0 0
420 1 19.332635658846126 8.16525183937908 5.531892835651813 0 0 0
415 1 0.373704685970276 10.599358586509823 5.730718709499734 1 0 0
195 1 5.3007430075711355 11.050057750448863 5.408649778695434 0 0 0
62 1 4.090370427974296 12.32738403229647 4.062285061041145 0 0 0
157 1 6.776380944215763 9.510269767670923 4.158761314643216 0 0 0
283 1 12.110410331374359 9.440361944145604 4.210797880802686 0 0 0
186 1 9.459333908403234 12.243780196341909 4.147173381002426 0 0 0
322 1 10.852675456390681 10.890633316059892 5.5144233983204485 0 0 0
313 1 14.961218766670573 12.068701007097953 3.9517437000686075 0 0 0
411 1 17.72746895953191 9.348193541425076 4.217604237100045 0 0 0
450 1 16.195149483654394 10.69259377922947 5.415989834920519 0 0 0
71 1 20.639777384982366 12.039291613321378 4.355672670344842 -1 0 0
64 1 1.2842425477937387 15.025271053044456 4.102201360875892 0 0 0
73 1 2.6070317181246487 13.679589333926682 5.521966188385829 0 0 0
188 1 6.7615999217607134 14.952000750937449 4.203209595269901 0 0 0
197 1 8.154490303987288 13.615345059111242 5.548882680763765 0 0 0
315 1 12.309033091709138 15.052198831621109 4.343507774582609 0 0 0
324 1 13.766626532137138 13.613786093248459 5.622898109695644 0 0 0
443 1 17.680420004094987 15.008414279166953 4.286873464641079 0 0 0
452 1 19.168863559824835 13.752164536604612 5.557643914729764 0 0 0
94 1 3.926035961997004 17.601141896004055 4.228157733241388 0 0 0
227 1 5.436128097389037 16.34620585767878 5.425028505662054 0 0 0
218 1 9.311677546904894 17.678869033045043 4.120352875105355 0 0 0
354 1 10.971373356863847 16.485574004942393 5.6002039238516765 0 0 0
345 1 15.123964778449636 17.856390685918154 4.2475778959506885 0 0 0
482 1 16.12969748689189 16.276426676630543 5.528473094550569 0 0 0
103 1 0.03590824449350549 16.336945475864244 5.673118786235083 0 0 0
473 1 20.55401250342637 17.818034992716367 4.1586566781601055 0 0 0
96 1 1.3265205395092337 20.645241222255358 4.184879191210366 0 0 0
105 1 2.672913234122223 19.207152151783927 5.624777008239779 0 0 0
229 1 7.914688852960538 19.046128991510436 5.565970429233643 0 0 0
220 1 6.598360772942615 20.4947640710849 4.1757837464230025 0 0 0
258 1 10.85073152784553 21.733371218198332 5.502562511727911 0 -1 0
347 1 12.108892530383228 20.46285923289668 3.938799776011487 0 0 0
356 1 13.6929676214275 19.167974113070493 5.559445809369729 0 0 0
475 1 17.569967668356085 20.372098210192338 4.224767244757852 0 0 0
484 1 18.845888137724955 18.9549902724063 5.581824274276248 0 0 0
14 1 2.7883424514428823 0.4952463638597238 8.19053235925857 0 0 0
9 1 5.469915437799663 3.1798153372285913 7.554652674310402 0 0 0
136 1 6.848362150240677 1.3743834196376414 6.9593429929935455 0 0 0
137 1 8.19522046207001 0.06269926662291664 8.296174324135055 0 0 0
256 1 10.933544949790544 2.670854317228138 8.260910269093332 0 0 0
261 1 12.386936108390492 1.4674501611583712 6.625290231236662 0 0 0
262 1 13.575405819501395 0.23270843075756775 8.268563917591079 0 0 0
389 1 17.828723329605303 1.4577762023099385 6.776816042660646 0 0 0
384 1 16.569557356810616 2.711608598202946 8.331651936215511 0 0 0
390 1 19.18898356122602 0.014395857977730447 8.141655892368538 0 0 0
134 1 8.299298581389639 5.3756975391396935 8.188125992229445 0 0 0
167 1 9.593846045865746 4.010934543315844 6.865250389901659 0 0 0
255 1 14.999262318848027 4.080612567886846 6.835499560735205 0 0 0
294 1 13.635579453509502 5.5447318584457435 8.178460014036464 0 0 0
422 1 19.398056820538148 5.605673010120458 8.09639914022783 0 0 0
39 1 5.295144286057622 8.355854030081222 8.01504621760308 0 0 0
38 1 3.8143286228519933 9.236874837001695 6.150258141542641 0 0 0
166 1 6.756474817742804 6.697234634333579 6.867192250595659 0 0 0
288 1 10.997313823650895 8.082248198120924 8.214968119877541 0 0 0
293 1 12.281345585396629 6.739488365562704 6.6412939364356784 0 0 0
161 1 9.42254230300905 9.592574712748664 6.923502962871092 0 0 0
421 1 17.787306541545604 6.763168534277431 6.8809568483539705 0 0 0
416 1 16.41535948441112 8.363567014892833 7.999606788448392 0 0 0
417 1 20.589628618677295 7.311141582583979 9.196224190991007 0 0 0
8 1 20.585958972043215 9.373588430445698 7.180610208241301 -1 0 0
75 1 2.725022545922867 10.29846063508765 8.046249670953 0 0 0
74 1 1.4513156306742996 12.288298159759096 7.10928015814886 0 0 0
199 1 8.04914616985332 11.040834876521902 8.111422501842318 0 0 0
198 1 6.656640460919481 12.357574369491342 6.769985097083953 0 0 0
325 1 12.23246496470469 12.252527447101903 6.974197400382226 0 0 0
287 1 14.837834823164902 9.588804302320161 6.821431478257547 0 0 0
326 1 13.567098638100274 10.87757894102515 8.333359711476922 0 0 0
453 1 17.730078461361625 12.220941813736225 6.600862546734596 0 0 0
454 1 18.987903784023192 10.930603200417675 8.01102195881467 0 0 0
68 1 4.029716323987501 14.999349962843814 6.7781250821580805 0 0 0
193 1 5.2156910464019655 13.44431862232439 8.211782816620419 0 0 0
192 1 9.415975389906587 15.045572004063914 6.9028594800856835 0 0 0
320 1 10.872834295121796 13.875159105666963 8.216249670864975 0 0 0
319 1 14.980301276310623 14.839572103539874 7.075884732903256 0 0 0
448 1 16.485035254156273 13.554666764976153 8.150449394463381 0 0 0
69 1 21.753566778541053 13.571077905646057 8.351904629189134 -1 0 0
447 1 20.51306843976088 14.971365179433754 6.986684688582212 0 0 0
106 1 1.3293708117138017 17.815522279875463 6.958674875156246 0 0 0
107 1 2.7121943307774097 16.368136575733175 8.346407611349314 0 0 0
230 1 6.733002072121446 17.664195260825565 7.014227041735048 0 0 0
231 1 8.073095150123553 16.37303345195782 8.37685749644825 0 0 0
357 1 12.376312099876971 17.89246240781561 6.937369019563422 0 0 0
358 1 13.807047498149394 16.5541552401333 8.170119865584926 0 0 0
485 1 17.484290764163763 17.665196926818236 6.9136936147196515 0 0 0
486 1 19.065360764851587 16.28648826713755 8.183101753987355 0 0 0
225 1 5.401509520196406 19.18773348975598 8.233930274550993 0 0 0
100 1 3.935406844571081 20.481755387865373 6.995772730807514 0 0 0
224 1 9.49235354353578 20.259620574832557 6.791711825628587 0 0 0
352 1 10.870239810519866 19.176150741717752 8.331399307714635 0 0 0
351 1 14.933102423981984 20.56445323276729 6.929969150789888 0 0 0
480 1 16.111324102765852 19.075933872655217 8.265421256607683 0 0 0
101 1 21.562848222262602 19.239586375569097 8.280252138586162 -1 0 0
479 1 20.40159337106321 20.415864900562614 6.644638034707094 0 0 0
21 1 1.714907915001128 1.8700415313404908 12.205996559687566 0 0 0
18 1 0.30002906518200373 0.38407657230122644 10.800818430395843 0 0 0
11 1 4.0036691846218675 2.0304887512890395 9.298754553681608 0 0 0
141 1 5.128533977569933 0.17948800911299814 10.668154512162722 0 0 0
143 1 8.153606491567636 2.600408797856706 10.88245077543872 0 0 0
144 1 6.527191637825757 1.3504099665321943 12.194261654327684 0 0 0
132 1 9.520006790543365 1.336131679928351 9.630608271144654 0 0 0
269 1 12.231775693263462 1.3458532461782367 12.37437443927558 0 0 0
266 1 10.798485165560457 21.77175144167797 11.10522393709229 0 -1 0
257 1 14.855441257601495 1.479854900408881 9.536214294834245 0 0 0
268 1 13.459955260327614 2.6659147699706542 11.023913158793048 0 0 0
397 1 17.806529029279904 1.3778247827632302 12.026617167708391 0 0 0
394 1 16.269998278057745 21.75399830258554 10.885138715163668 0 -1 0
385 1 20.531954291089086 1.3150835611094387 9.26715617162484 0 0 0
396 1 19.318069394430175 2.7214318585764565 10.657625392463174 0 0 0
48 1 21.590020478737692 5.7074230992987385 10.707757857118336 -1 0 0
15 1 5.265979851397438 5.0606078694862555 10.50494214348839 0 0 0
20 1 3.7093164628616644 3.6639510107275948 11.755674110096859 0 0 0
171 1 6.860740236925126 3.853773349367799 9.239185667282955 0 0 0
298 1 10.804374196357879 5.326935430738063 10.905138748567662 0 0 0
259 1 12.277287264437843 4.0773487020005215 9.51547946847163 0 0 0
138 1 9.45255279959097 4.069868850867647 12.345869815266918 0 0 0
263 1 14.940724205167658 4.239835206801443 12.376225248478098 0 0 0
387 1 17.799927001789733 4.265629288571015 9.439194553218115 0 0 0
426 1 16.09603318208713 5.478877491861082 10.742307086002176 0 0 0
391 1 20.494757004577874 4.203161952903049 12.095817063283206 0 0 0
41 1 0.840182480151635 9.079303624009817 8.979297904628428 0 0 0
51 1 1.201754498186098 6.620135412942936 12.310546067972535 0 0 0
50 1 2.355082777791179 7.966676055975906 10.823792104300354 0 0 0
44 1 4.028146121885685 6.786934813635133 9.437440119889287 0 0 0
173 1 8.07127036002802 7.972927420709019 10.681411522803902 0 0 0
174 1 6.610773151905171 6.596152760290918 11.940862244547244 0 0 0
162 1 9.616239265172053 6.754653605044117 9.465576574443013 0 0 0
301 1 12.098255627750747 6.637986834101228 12.50670375881016 0 0 0
289 1 14.852624147701402 7.069599126839764 9.37687653044753 0 0 0
300 1 13.384754425437047 7.931327125840493 10.92266753084857 0 0 0
429 1 17.561704619758405 6.921538843522473 12.184515355177965 0 0 0
428 1 19.054167456818153 8.36695612593073 10.748024189794885 0 0 0
82 1 1.4990107464796005 12.228027256680027 12.188187773848322 0 0 0
45 1 3.948631440220475 9.162141429721421 12.034547579417069 0 0 0
70 1 3.8708843270721345 11.897861747408456 9.260910754008647 0 0 0
203 1 5.272677792169188 10.743162485639951 10.872084548623661 0 0 0
164 1 6.870181783214984 9.606794659254616 9.45006116617643 0 0 0
206 1 6.515853669796494 12.052200370938404 12.246052373252207 0 0 0
291 1 12.099587188605044 9.53620761252423 9.523581679408371 0 0 0
194 1 9.40834116169144 12.358976032258722 9.56301801535222 0 0 0
330 1 10.796957432080209 10.893094433218863 10.880867492800444 0 0 0
333 1 12.14082595780262 12.194605655273978 12.319731987885378 0 0 0
168 1 9.45245937581331 9.416144315472156 12.334244648393266 0 0 0
321 1 14.969237765366112 12.419849076393563 9.42795887504469 0 0 0
295 1 14.81225522354571 9.524903255301163 12.311013949066638 0 0 0
419 1 17.6480638909801 9.781755981498307 9.472017360715773 0 0 0
458 1 16.331698847516616 10.951595295024593 10.94058556577981 0 0 0
461 1 17.597923892874423 12.217148696770204 12.367117052638608 0 0 0
79 1 0.13124958999554082 10.903211873900782 10.726847135206452 0 0 0
449 1 20.18517678424348 12.286700633003601 9.542391862741647 0 0 0
423 1 20.446366536594088 9.588101649095485 12.287477340265196 0 0 0
72 1 1.432205446960705 14.962282560413382 9.590391345461391 0 0 0
81 1 2.8690781515771517 13.590225738392157 10.790803454362504 0 0 0
196 1 6.80565948500753 14.830163997011738 9.55393571459666 0 0 0
205 1 8.067526550554195 13.501849597162536 11.03065174084814 0 0 0
200 1 9.699958534597846 15.118593298437476 12.313848197771778 0 0 0
323 1 12.426485111364103 15.165467658821461 9.493161154425977 0 0 0
332 1 13.494939294374396 13.479909219665895 11.029726162961301 0 0 0
327 1 15.101071421275568 14.864388107646198 12.135976717241656 0 0 0
451 1 17.877944004869708 14.794449123105732 9.58165154008929 0 0 0
460 1 19.19586852859952 13.539663121354007 11.05645791923607 0 0 0
114 1 1.503643121807021 17.54884386156903 12.238994929299599 0 0 0
102 1 4.2033196970838995 17.711916789336815 9.636977437029461 0 0 0
235 1 5.7161629120525586 16.254946614539584 11.017850445424164 0 0 0
238 1 7.032577620940307 17.654735280117404 12.364533703457369 0 0 0
226 1 9.554293843410779 17.756650037034166 9.555989154072376 0 0 0
362 1 10.892421126371643 16.313250271820056 10.832601897931623 0 0 0
365 1 12.03459312953585 17.6612755928654 12.28874320232058 0 0 0
353 1 14.936323588997155 17.738692422819337 9.574589014415938 0 0 0
490 1 16.442297669276513 16.288284827387915 10.904396024158409 0 0 0
493 1 17.655506723494504 17.528216433386522 12.361084958131839 0 0 0
111 1 0.07146518004766023 16.38712520068282 10.864895472557176 0 0 0
481 1 20.34664533941526 17.668625380559707 9.54539314905348 0 0 0
104 1 1.4716736057600595 20.524628225377498 9.50791553595591 0 0 0
113 1 2.6572355188255443 18.989557085729654 10.853721184607288 0 0 0
108 1 3.906961012183439 20.466486201012493 12.302127335833168 0 0 0
228 1 6.675789473191347 20.50589348355317 9.602172380267913 0 0 0
237 1 8.026653697291911 19.00738503985775 10.784793380862032 0 0 0
232 1 9.326390209948814 20.328233598113602 12.145670793897471 0 0 0
355 1 12.109091534220555 20.578446545675014 9.564736271674915 0 0 0
364 1 13.499837305922398 19.047634009968398 10.977856501309041 0 0 0
359 1 14.90912711989555 20.25548850850222 12.19245605497196 0 0 0
483 1 17.65470104407787 20.36336439115517 9.59808709342447 0 0 0
492 1 18.987464238208055 18.979006825299763 11.0181903023732 0 0 0
487 1 20.56004738760224 20.655406217663877 12.08640073281553 0 0 0
16 1 21.700509300288324 2.6977290900777424 13.488482602432038 -1 0 0
17 1 4.030141638843214 1.514146474859166 15.081617792521746 0 0 0
139 1 5.26363670617117 2.91069573567603 13.461288331842372 0 0 0
140 1 9.299353651037565 1.1957079425502775 14.824917058609548 0 0 0
264 1 10.959419678854937 2.7254030744051323 13.717215609537478 0 0 0
265 1 15.02984108074304 1.4946129529977967 14.962725796255942 0 0 0
270 1 13.689899855405248 21.68439760460751 13.535185973390773 0 -1 0
392 1 16.385831874001838 2.7879148720485643 13.378829775833333 0 0 0
393 1 20.365651080208448 1.3408947594970484 14.959606330019335 0 0 0
398 1 19.13411583982252 0.05279562599316881 13.458642233903438 0 0 0
19 1 1.306396662430425 3.9193970053271467 14.948471138178759 0 0 0
52 1 2.8315810412455695 5.216010010761664 13.537398816626695 0 0 0
142 1 6.6548501839318845 4.212849369303572 15.05935947466757 0 0 0
175 1 7.9106473225956275 5.425723973506316 13.537671437733003 0 0 0
267 1 12.124458811591184 3.8119937286686594 15.280900516179864 0 0 0
302 1 13.471721647539272 5.351146923857869 13.845465146853222 0 0 0
395 1 17.924856555792566 4.047157510570535 14.891898496562465 0 0 0
430 1 19.03885623446893 5.608881801597603 13.358577879332245 0 0 0
46 1 0.12787483598901545 8.240158391720545 13.684438330739992 0 0 0
47 1 4.169054841387729 6.6827044539286655 14.960021821861236 0 0 0
169 1 5.383831416673955 7.943738338249453 13.361237418663677 0 0 0
170 1 9.51725657717706 6.447139483768452 15.08406059547234 0 0 0
296 1 10.773521177364184 8.138667167655084 13.81268809573305 0 0 0
299 1 12.069123481794612 9.670432036887378 15.119969251262704 0 0 0
297 1 15.028474430354024 6.665078313408525 15.192754530726456 0 0 0
424 1 16.365075303954566 8.177509780279951 13.673007305914645 0 0 0
425 1 20.558391951451767 6.711968541643028 15.064562909147577 0 0 0
49 1 1.491591990003186 9.555256832094297 15.08235746320561 0 0 0
83 1 2.7912975270871985 10.778537649462452 13.42836953946024 0 0 0
78 1 4.088481475124219 12.004395815534009 14.89525963180543 0 0 0
172 1 6.717572407904665 9.331457237310817 15.02923474964582 0 0 0
207 1 8.085637175407934 10.717577119954534 13.708028832109658 0 0 0
202 1 9.324997420506476 12.32645518605011 14.937779788342343 0 0 0
334 1 13.518806950179433 10.865250819012317 13.783524197950971 0 0 0
329 1 15.062403987193406 11.94873106454118 15.029950334941335 0 0 0
427 1 17.79353553218751 9.31420655085437 15.32696124764055 0 0 0
462 1 18.898557638509786 10.780693190092057 13.718208029407503 0 0 0
457 1 20.43505202038771 12.27691628370557 14.845824378915255 0 0 0
80 1 1.4264309494428795 14.8764769805305 15.126230316386591 0 0 0
76 1 4.195908733820609 14.969441611275785 12.213693105673705 0 0 0
201 1 5.451264800272472 13.440905330167121 13.650957826689972 0 0 0
204 1 6.791126660713192 14.62806116599539 15.074981434576602 0 0 0
328 1 10.99988736484055 13.596394021306175 13.763081711457238 0 0 0
331 1 12.36258957751214 14.874242547030615 15.050831942586527 0 0 0
456 1 16.286427886956528 13.487416921154404 13.689281088583447 0 0 0
459 1 17.319825613348517 14.934398483038375 15.186944474133066 0 0 0
77 1 0.15217875519845947 13.641990452065773 13.507014343154479 0 0 0
455 1 20.545196557157258 14.999731842260529 12.268786295987708 0 0 0
115 1 2.8390435967680716 16.19248055327388 13.666847516564655 0 0 0
110 1 3.9673994542970927 17.68181366776863 15.098495551569068 0 0 0
239 1 8.216393845768925 16.284100157397575 13.876336817735604 0 0 0
234 1 9.54873506917096 17.717891126407658 15.1635856277036 0 0 0
361 1 14.86061502205554 17.790360378044987 14.889505978920047 0 0 0
366 1 13.622822725260566 16.258367989137945 13.593609478051171 0 0 0
494 1 18.846310642032318 16.14162769218454 13.787198752169672 0 0 0
489 1 20.49022011026946 17.540773993097435 15.03959386704922 0 0 0
22 1 2.540858945702083 0.24805543266783658 13.674563881995844 0 0 0
112 1 1.4062015199678788 20.384188950016526 14.94115921006227 0 0 0
233 1 5.510337118121812 19.082315649724517 13.587813710287902 0 0 0
145 1 7.764101608036841 21.68497812660667 13.481127322253126 0 -1 0
236 1 6.575714344420195 20.473898601953362 15.106791907214841 0 0 0
360 1 10.67122762356716 19.067963428172675 13.643186646347973 0 0 0
363 1 12.072651833870811 20.463957211136197 15.092745925910727 0 0 0
488 1 16.3399235141361 18.987446508280055 13.645311120815007 0 0 0
491 1 17.723630776003347 20.35682636796493 14.935074468536943 0 0 0
109 1 0.10135848246434875 18.91325723307356 13.5360091880403 0 0 0
29 1 1.2380030770656827 1.433796982113249 17.666778124431378 0 0 0
28 1 2.533462348527412 2.7782864212914533 16.45206491594898 0 0 0
152 1 6.477306226230649 1.311261756296136 17.78846913666406 0 0 0
151 1 7.830113193226273 2.5638682413198914 16.178254126545585 0 0 0
277 1 12.138238328826468 1.2148875570602653 17.789194580967045 0 0 0
276 1 13.647570625052559 2.463114997911776 16.60532142780881 0 0 0
405 1 17.5316732799554 1.195130603796465 17.62527996275768 0 0 0
404 1 18.95557793536415 2.5938687971892493 16.45142391940174 0 0 0
26 1 0.002182035434344698 21.744273021923927 16.278325402377337 0 -1 0
23 1 3.8685203923193434 4.04225908120223 17.853287886555375 0 0 0
179 1 5.258793917266461 5.331273865184033 16.492002508749852 0 0 0
146 1 9.432102146521972 3.869506880730376 17.713370663224023 0 0 0
306 1 10.850365438729483 5.300349030701663 16.537758762051848 0 0 0
271 1 14.929811596656664 4.093337086015497 17.831746997149878 0 0 0
434 1 16.383036796209417 5.213851678953597 16.421795317793393 0 0 0
56 1 0.07005377966054027 5.3953471031832665 16.423532953924987 0 0 0
399 1 20.322878857303028 4.05981280888522 17.882701144339865 0 0 0
59 1 1.2918452708194108 6.781920397892671 17.85353170018744 0 0 0
58 1 2.8195531759487173 7.966690626968742 16.404716357881696 0 0 0
181 1 8.069368815089899 8.00630040014482 16.39123012867663 0 0 0
182 1 6.84742961659063 6.519431132419744 17.77884208880244 0 0 0
309 1 12.205476158770306 6.7755364497112485 17.811118714897322 0 0 0
176 1 9.35139356729103 9.49335347926985 17.61490259802118 0 0 0
308 1 13.445206376995014 8.204840579919821 16.29325836154357 0 0 0
437 1 17.77067117532959 6.543746322643837 17.728012587831298 0 0 0
436 1 19.287665075752624 7.942371038311415 16.559635177691014 0 0 0
90 1 1.3110190222565563 12.157975809795484 17.907446051917567 0 0 0
87 1 21.7369349123235 10.966320402111677 16.43359002388222 -1 0 0
53 1 4.113573404460925 9.40797291470435 17.747238991979305 0 0 0
211 1 5.345570647849533 10.701008436115782 16.403978595901584 0 0 0
214 1 6.670357958428624 11.96148751695406 17.805135609016617 0 0 0
338 1 10.78048710071307 11.010416350530717 16.308657882045274 0 0 0
341 1 12.313349626497766 12.341196342517494 17.586833885064216 0 0 0
303 1 14.797629233549204 9.362556457738878 17.849420885282147 0 0 0
466 1 16.397509485606136 10.748155610695976 16.470769559760345 0 0 0
469 1 17.780810402574552 12.29372433215155 17.667252538900588 0 0 0
431 1 20.685781635429077 9.550140180697591 17.78271589628154 0 0 0
89 1 2.674533604105946 13.3034254743955 16.381456371978576 0 0 0
84 1 4.050336518910071 14.743430323971584 17.693400089673112 0 0 0
213 1 7.964524376032159 13.410755431578194 16.66966256829784 0 0 0
208 1 9.621171397347679 14.909865613328131 17.806867982199112 0 0 0
335 1 15.012465684612577 14.993623527227767 17.684188930855104 0 0 0
340 1 13.773546002769894 13.476329503241882 16.25649263650884 0 0 0
468 1 19.108281782333776 13.591388816001801 16.22189578732194 0 0 0
463 1 20.443258211210196 14.928539359673906 17.7269242269133 0 0 0
122 1 1.4425983547581733 17.35598463551548 17.768608763672496 0 0 0
243 1 5.2768911270093035 16.10741340531448 16.320817112195257 0 0 0
246 1 6.651662765154812 17.61983491438307 17.760024315584474 0 0 0
370 1 11.001246604975838 16.24649060744576 16.38357959942276 0 0 0
373 1 12.121507652210251 17.674860226243318 17.731201743079236 0 0 0
498 1 16.26593976615793 16.572891327856784 16.38566052311629 0 0 0
501 1 17.812305885678196 17.634228656633717 17.694948947853327 0 0 0
119 1 0.0005847577808424376 16.180253248857223 16.406762979200366 0 0 0
121 1 2.5103026596519324 19.030618047285284 16.42390042023432 0 0 0
149 1 5.163613366503504 21.734607353046886 16.52833082427677 0 -1 0
116 1 3.9091674394441234 20.224870715926137 17.852269491602122 0 0 0
245 1 7.951237497535085 19.17497365357767 16.46703518484035 0 0 0
274 1 10.517737474237197 21.598994998452905 16.335174215328887 0 -1 0
240 1 9.30007095508846 20.366122673225938 17.912783368145288 0 0 0
372 1 13.35429868590694 18.972435099045104 16.406087513740424 0 0 0
367 1 14.907366411170928 20.305266822424 17.544040794054236 0 0 0
402 1 16.372629159461262 21.68736106502108 16.273071253846776 0 -1 0
500 1 19.045332096656495 19.146243769726894 16.275847371763835 0 0 0
495 1 20.3690182053523 20.47142828236074 17.671902321890208 0 0 0
24 1 21.530525779472686 2.662225949508937 19.346277328256143 -1 0 0
30 1 2.4546965023574194 0.04574970227526071 19.243367920358594 0 0 0