LAMMPS (10 Sep 2025)
OMP_NUM_THREADS environment is not set. Defaulting to 1 thread.
  using 1 OpenMP thread(s) per MPI task
Loaded 1 plugins from C:\Users\lmike\AppData\Local\LAMMPS 64-bit 10Sep2025 with GUI\plugins
# LAMMPS input generated from LammpsInputFile with pymatgen v2025.10.7

# STYLES
units metal
atom_style atomic

# SET UP CALCULATION
read_data starting_config.dat
Reading data file ...
  orthogonal box = (0 0 0) to (21.772397 21.772397 21.772397)
  1 by 1 by 1 MPI processor grid
  reading atoms ...
  502 atoms
  read_data CPU = 0.004 seconds
pair_style sw
pair_coeff * * Si.sw Si
Reading sw potential file Si.sw with DATE: 2007-06-11
velocity all create 900 2751313

# CALCULATION PARAMETERS
fix f1 all nvt temp 900.0 900.0 $(100.0*dt)
fix f1 all nvt temp 900.0 900.0 0.10000000000000000555
thermo 100000
thermo_style custom step temp press spcpu cpuremain

# RUN CALC AND WRITE OUTPUTS
dump d1 all custom 100 state_dump id type x y z vx vy vz
run 10000000
Neighbor list info ...
  update: every = 1 steps, delay = 0 steps, check = yes
  max neighbors/atom: 2000, page size: 100000
  master list distance cutoff = 5.77118
  ghost atom cutoff = 5.77118
  binsize = 2.88559, bins = 8 8 8
  1 neighbor lists, perpetual/occasional/extra = 1 0 0
  (1) pair sw, perpetual
      attributes: full, newton on
      pair build: full/bin/atomonly
      stencil: full/bin/3d
      bin: standard
Per MPI rank memory allocation (min/avg/max) = 3.116 | 3.116 | 3.116 Mbytes
   Step          Temp          Press          S/CPU         CPULeft    
         0   900           -438.01112      0              0            
    100000   884.57238     -11515.435      609.15824      16251.935    
    200000   887.079       -10479.888      629.15949      15832.055    
    300000   882.06342     -11665.469      825.8887       14361.977    
    400000   877.40297     -10618.503      748.34419      13867.517    
    500000   880.5829      -11065.475      704.04255      13677.152    
    600000   884.82925     -9864.9887      705.05209      13499.709    
    700000   894.00217     -8098.0587      704.25603      13334.571    
    800000   921.77656     -8042.2722      707.80212      13167.038    
    900000   913.54082     -7797.0159      707.21408      13006.526    
   1000000   902.09376     -8159.658       690.76728      12880.136    
   1100000   1011.6221     -8223.328       697.9806       12738.301    
   1200000   935.25469     -8042.2055      698.54257      12595.381    
   1300000   879.07173     -8857.0635      714.54041      12430.975    
   1400000   902.8248      -9851.0112      713.90433      12270.829    
   1500000   940.80073     -7970.3616      707.68461      12120.335    
   1600000   915.84777     -8918.606       708.22952      11970.419    
   1700000   872.65547     -9191.1476      709.47005      11820.324    
   1800000   879.45065     -8974.9074      711.42668      11669.478    
   1900000   884.66103     -9142.8874      715.56689      11516.248    
   2000000   879.67884     -10367.092      717.23985      11363.062    
   2100000   875.63007     -8846.5527      707.00325      11218.781    
   2200000   954.89119     -7744.8056      704.59372      11076.473    
   2300000   943.28929     -8407.4023      699.22752      10937.844    
   2400000   893.46415     -9344.6833      718.23767      10786.863    
   2500000   921.53223     -9915.7903      713.90497      10639.358    
   2600000   879.73202     -9678.7378      706.25322      10496.743    
   2700000   890.54289     -7896.2461      704.21898      10355.31     
   2800000   850.0877      -7997.5719      704.77455      10213.548    
   2900000   906.98742     -8256.9043      703.71461      10072.301    
   3000000   873.61744     -9374.0611      700.92233      9932.3181    
   3100000   875.27942     -8073.2124      701.25636      9792.0102    
   3200000   859.96055     -8270.6806      707.71967      9648.7916    
   3300000   851.94725     -8510.048       706.71013      9506.0992    
   3400000   941.71981     -8786.7076      711.59782      9361.5902    
   3500000   874.76398     -8263.885       705.51006      9219.5606    
   3600000   856.47201     -10074.041      704.58641      9077.8774    
   3700000   856.41274     -10126.14       707.97415      8935.0246    
   3800000   907.06001     -9146.1626      705.04951      8793.2122    
   3900000   932.26252     -8789.22        703.99459      8651.7312    
   4000000   925.16609     -7646.6223      703.43431      8510.3916    
   4100000   881.45133     -7529.7243      715.7138       8365.5021    
   4200000   907.34391     -9512.8851      718.12863      8220.21      
   4300000   906.28528     -8033.7929      708.82506      8077.6216    
   4400000   950.65505     -8776.1763      692.89225      7939.2307    
   4500000   827.21794     -9471.3144      710.60326      7796.1797    
   4600000   895.80814     -7986.2539      710.08414      7653.3506    
   4700000   934.72957     -8150.2326      711.55311      7510.2787    
   4800000   809.78183     -11202.126      716.06894      7366.3523    
   4900000   893.1842      -9330.9637      705.89638      7224.6951    
   5000000   904.40511     -9442.6495      725.40028      7079.2286    
   5100000   943.5269      -7358.3132      707.9314       6937.329     
   5200000   957.15267     -8747.1544      691.74181      6798.5057    
   5300000   929.82048     -8434.2539      705.63917      6656.9411    
   5400000   878.73475     -9460.2112      718.57884      6513.197     
   5500000   889.90336     -8250.4334      710.71243      6370.8798    
   5600000   868.98448     -9565.2443      703.78045      6229.709     
   5700000   966.38051     -9928.9351      711.37359      6087.3619    
   5800000   863.74769     -9090.2329      711.53753      5945.0525    
   5900000   855.95317     -7536.9705      710.31572      5802.9711    
   6000000   928.71763     -8602.219       715.91839      5660.1984    
   6100000   919.9293      -9415.4321      718.45426      5517.2119    
   6200000   895.70738     -9159.0583      709.46843      5375.4285    
   6300000   942.93277     -9564.2942      710.35279      5233.5684    
   6400000   932.75723     -8333.2297      704.37314      5092.4144    
   6500000   858.46687     -10390.78       711.73167      4950.445     
   6600000   932.18271     -8426.3665      706.73554      4809.0317    
   6700000   914.92884     -8547.2545      693.47368      4668.9488    
   6800000   911.32539     -9349.1573      702.02334      4527.9182    
   6900000   849.88771     -7178.2804      713.85736      4385.7858    
   7000000   881.01321     -9813.3387      710.00937      4244.0372    
   7100000   926.50094     -8141.9061      703.85066      4102.8175    
   7200000   950.5766      -7573.5318      718.01077      3960.4844    
   7300000   900.9993      -8147.1713      706.34346      3819.086     
   7400000   921.69302     -8064.9995      708.0514       3677.5628    
   7500000   912.10574     -8085.5734      711.80731      3535.799     
   7600000   920.64531     -8214.9458      710.75556      3394.1344    
   7700000   916.52503     -8393.7436      711.47706      3252.4524    
   7800000   871.92007     -9048.6786      692.76568      3111.8701    
   7900000   845.99161     -9070.4626      710.20649      2970.2501    
   8000000   897.08379     -9602.0327      695.78853      2829.38      
   8100000   872.07139     -7052.4637      706.43881      2687.9312    
   8200000   905.93909     -7870.5345      708.35228      2546.3958    
   8300000   907.08082     -8627.9071      710.22522      2404.793     
   8400000   911.71433     -8497.7426      719.03163      2262.8808    
   8500000   888.69542     -7990.8704      712.54867      2121.2586    
   8600000   977.21121     -7047.2974      706.5348       1979.8607    
   8700000   902.50004     -9347.5186      708.5922       1838.3982    
   8800000   957.64913     -7613.6876      707.09592      1696.984     
   8900000   906.03489     -8946.3967      716.02876      1555.3517    
   9000000   913.92778     -8413.5625      710.87727      1413.8756    
   9100000   836.61533     -8310.9008      708.50754      1272.4637    
   9200000   902.21498     -8392.9514      705.38682      1131.112     
   9300000   904.55151     -8672.8882      702.29575      989.79836    
   9400000   931.02206     -9632.7638      710.83636      848.35261    
   9500000   846.77108     -8107.4455      719.16126      706.83729    
   9600000   907.18326     -7263.0166      723.54693      565.33819    
   9700000   980.05479     -7642.1866      712.31072      423.97437    
   9800000   930.2859      -7645.0292      775.13738      282.39825    
   9900000   955.68925     -8922.2576      683.85099      141.24995    
  10000000   833.52508     -11341.757      669.44134      0            
Loop time of 14133.1 on 1 procs for 10000000 steps with 502 atoms

Performance: 61.133 ns/day, 0.393 hours/ns, 707.558 timesteps/s, 355.194 katom-step/s
99.5% CPU use with 1 MPI tasks x 1 OpenMP threads

MPI task timing breakdown:
Section |  min time  |  avg time  |  max time  |%varavg| %total
---------------------------------------------------------------
Pair    | 13863      | 13863      | 13863      |   0.0 | 98.09
Neigh   | 16.016     | 16.016     | 16.016     |   0.0 |  0.11
Comm    | 39.549     | 39.549     | 39.549     |   0.0 |  0.28
Output  | 140.27     | 140.27     | 140.27     |   0.0 |  0.99
Modify  | 59.798     | 59.798     | 59.798     |   0.0 |  0.42
Other   |            | 14.53      |            |       |  0.10

Nlocal:            502 ave         502 max         502 min
Histogram: 1 0 0 0 0 0 0 0 0 0
Nghost:           1421 ave        1421 max        1421 min
Histogram: 1 0 0 0 0 0 0 0 0 0
Neighs:              0 ave           0 max           0 min
Histogram: 1 0 0 0 0 0 0 0 0 0
FullNghs:        17472 ave       17472 max       17472 min
Histogram: 1 0 0 0 0 0 0 0 0 0

Total # of neighbors = 17472
Ave neighs/atom = 34.804781
Neighbor list builds = 22737
Dangerous builds = 0
write_data FINAL_STRUCTURE
System init for write_data ...
Total wall time: 3:55:33
