LAMMPS data file via write_data, version 10 Sep 2025, timestep = 10000000, units = metal

502 atoms
1 atom types

0 21.763403 xlo xhi
0 21.763403 ylo yhi
0 21.763403 zlo zhi

Masses

1 28.085

Atoms # atomic

7 1 2.755391270472208 0.5319605100911797 2.8556483954861753 0 0 0
6 1 0.9510640215389599 1.7808994253312933 1.7528567155299029 0 0 0
27 1 2.923396118692573 2.589733282930381 0.544345739701697 0 0 1
126 1 5.441459965395164 0.15333221193059285 21.762739410773396 0 0 -1
128 1 6.666952767499889 1.768919105719075 1.4660661266533184 0 0 0
129 1 8.018554513381554 0.19652622812427958 2.6682105157723197 0 0 0
150 1 8.07653593247029 3.071249371964 0.16320459754602035 0 0 1
125 1 10.80863451828395 2.8737879834960434 2.656262500714714 0 0 0
253 1 12.23773206946771 1.4169249343898747 1.3300931570062724 0 0 0
250 1 10.892161976960026 0.03087416745099958 0.046622458491926186 0 0 0
254 1 13.495074322303015 0.009189171733773094 2.7578007778299436 0 0 0
252 1 13.530245890152889 2.6070057337957437 21.67740750379211 0 0 -1
381 1 17.812484920098804 1.5253029701394332 1.2485565710523465 0 0 0
376 1 16.42112881166206 2.835688104141811 2.6819239636015584 0 0 0
3 1 21.587361241965677 0.19363241089203972 0.1797018344442831 -1 0 0
375 1 0.07150713508444065 5.634937492048859 0.628760179076673 1 0 0
1 1 4.979623005901343 3.514705004302445 2.1444603199254626 0 0 0
156 1 5.311479265209792 5.585808837570913 0.4042784104134007 0 0 0
160 1 7.990694118470142 5.667770836529318 2.876392295171643 0 0 0
124 1 9.598854573898066 4.447169933502173 1.5046739330663492 0 0 0
248 1 15.03878910616046 3.915973075958386 1.2340208604400438 0 0 0
286 1 13.781626210403607 5.266734240343075 2.678590616403216 0 0 0
410 1 16.582432812240366 5.294866701095889 0.08048722701159652 0 0 0
4 1 20.833582963777687 3.647310590217235 1.76079432569328 -1 0 0
414 1 19.41012930604677 5.328682608254814 2.7081760768554037 0 0 0
35 1 2.677550612565092 7.902516186433916 0.5476403894274586 0 0 0
36 1 0.4748266910469313 7.703214444466414 2.166098495769466 0 0 0
31 1 4.4201259917449365 9.176993507145713 1.5161899546321216 0 0 0
159 1 6.48927910071137 7.381603003992986 1.6079753288259107 0 0 0
280 1 11.181498696366614 8.094330336963111 2.567398116444864 0 0 0
285 1 12.469903215032078 6.630168999232247 1.156634336106726 0 0 0
284 1 13.81090643116286 8.124241803475293 21.71949249212963 0 0 -1
408 1 16.348964832112287 7.999589189938324 2.8452818450595143 0 0 0
413 1 17.967251279007595 6.675936873128749 1.3909685635575295 0 0 0
412 1 19.274998259490985 8.155709527737088 0.12391347777636241 0 0 0
63 1 1.5244560282116353 12.03641630543164 1.5579788720798216 0 0 0
67 1 2.9838521299937257 10.509696432767692 2.8069403102154253 0 0 0
187 1 5.426484919124801 10.741165896331589 21.66076418435402 0 0 -1
191 1 8.270721357864899 10.864911338797938 2.53592454657999 0 0 0
190 1 6.781096225841038 12.121953844739616 1.2223579955659898 0 0 0
154 1 9.710588400665662 9.602913279515844 1.3463029616603381 0 0 0
317 1 12.182928234226274 12.247541587022063 1.4786795953828498 0 0 0
314 1 11.108348989358952 10.83829741569398 21.61350731998306 0 0 -1
279 1 14.951526272129346 9.36516370731998 1.524482305723607 0 0 0
318 1 13.554244854653561 10.857456474343874 2.7214880114908304 0 0 0
445 1 17.68077197914138 12.15420401290522 1.6124219196261187 0 0 0
407 1 0.21491750729182585 10.821089433391583 0.17660760956742294 1 0 0
34 1 20.665282854998416 9.412909045361372 1.417586175154384 -1 0 0
446 1 19.24839073952608 10.69849174024102 2.779038672774306 0 0 0
66 1 0.057571802962541774 13.64420300288094 2.7145428590402485 0 0 0
61 1 4.137883275877964 14.917977795792995 1.489693795608468 0 0 0
185 1 5.518431995870548 13.511773238337124 2.7351634515038232 0 0 0
184 1 9.599135415405211 14.924165954051164 1.4393646806080345 0 0 0
189 1 8.106985673341699 13.620984641229587 21.739266648188654 0 0 -1
312 1 10.787631778273598 13.51109411115921 2.854710305708114 0 0 0
311 1 14.823053596509952 15.061431291991699 1.4024703828345286 0 0 0
316 1 13.484733171069134 13.737168256979775 0.13647629462618482 0 0 0
440 1 16.241910106429863 13.528859423607676 2.742499016206861 0 0 0
439 1 20.320001927275673 15.023854143049212 1.3576104207350255 0 0 0
444 1 19.060885778253482 13.456461636886694 0.030350547653539707 0 0 0
98 1 1.4743836013662275 17.72476337860982 1.4720958312308972 0 0 0
99 1 2.740908179665286 16.443497139821872 2.851894304958647 0 0 0
95 1 0.017983546661659196 16.42647301776846 0.0922807732954034 0 0 0
219 1 5.428509251022872 16.218626117453276 21.722844741629785 0 0 -1
222 1 6.796174604661615 17.648260400143858 1.2945049020651436 0 0 0
223 1 8.143014626115507 16.213939852320742 2.7117763639257393 0 0 0
349 1 12.130074066980676 17.493371252357225 1.1564229421452041 0 0 0
350 1 13.274070268401802 16.259880135658257 2.583228915791804 0 0 0
477 1 17.249144206887063 17.71928125711652 1.2659497079434654 0 0 0
474 1 16.269366582748766 16.254435675963364 21.531736086588964 0 0 -1
478 1 18.819941266982163 16.339294435809038 2.5765361156882256 0 0 0
97 1 2.75593480075543 19.08846865731454 0.1973393811981552 0 0 0
92 1 4.075750839543419 20.675795731645703 1.430526895827662 0 0 0
217 1 5.44256246926824 19.24328560777351 2.586983007542935 0 0 0
216 1 9.362422618658846 20.462846829127113 1.2238600999084084 0 0 0
344 1 10.746520061175218 18.9119814565844 2.715634879834625 0 0 0
343 1 14.855458871340463 20.385923013398784 1.2737473723459716 0 0 0
472 1 16.149533337000232 18.981024649442976 2.735036157494016 0 0 0
382 1 19.05772992438741 0.293141067911703 2.598322864677759 0 0 0
93 1 0.006285549867316146 19.214660140161964 2.6981942816788522 0 0 0
471 1 20.301363092232165 20.531280693218882 1.4139367778189333 0 0 0
10 1 21.640504789930922 0.25631963540383895 5.236052962770306 -1 0 0
2 1 4.048483351475086 2.3436449215107267 4.102141469334329 0 0 0
133 1 5.124653439198767 0.4165226979462898 5.219928387711837 0 0 0
135 1 7.968926447770765 2.954167936240324 5.371443562886103 0 0 0
130 1 9.481032012928603 1.623883878493377 4.1343352680299255 0 0 0
249 1 14.924678951757668 1.5931442469586503 3.82579879127206 0 0 0
260 1 13.748932555193198 2.620452466710675 5.390676275679555 0 0 0
386 1 16.137324920362975 0.0711598581684818 5.3057247435496055 0 0 0
377 1 20.61732506136306 1.951125299210465 3.552286463173972 0 0 0
388 1 19.1044234598311 2.8922851146131134 5.484927964919494 0 0 0
37 1 2.3877368658230416 3.31216310673199 5.54998023590803 0 0 0
40 1 0.4808955287469863 5.199316259263779 5.326665654554694 0 0 0
127 1 6.504638753850727 4.4468700192342405 4.030646176327528 0 0 0
166 1 6.5805413727823 6.1803076764423 5.8357650485997326 0 0 0
290 1 11.07542889494278 5.337181512168994 5.388250636693943 0 0 0
251 1 12.466836895019762 3.9491099649378727 3.9337709815793587 0 0 0
379 1 17.939339498020537 3.9908432435460846 3.8586976246982903 0 0 0
418 1 16.48737869816016 5.353818217871946 5.254505739986088 0 0 0
42 1 1.7511862478556328 9.165425006384831 4.442525050187596 0 0 0
165 1 7.888471344668908 8.118719124376472 5.230650873920782 0 0 0
157 1 6.6375276098073215 9.41848572811729 3.5109388070259517 0 0 0
155 1 9.69962897752189 6.864884702821777 4.095398563222329 0 0 0
281 1 14.97070653541405 6.710707562792038 4.060079411124743 0 0 0
292 1 13.616797118219862 7.981418118851681 5.354842261228941 0 0 0
409 1 20.926257219473218 6.642109477788147 4.136801906937267 0 0 0
420 1 19.17246664680902 7.945711016712984 5.441588024908022 0 0 0
71 1 0.260877066006134 10.766787003093071 5.347776290958339 0 0 0
195 1 5.513406143486939 10.630666834059538 5.356687509713818 0 0 0
62 1 4.232906005287768 12.012204992020502 4.035251050910327 0 0 0
186 1 9.568325324155436 12.200742829919255 4.146927576265082 0 0 0
283 1 12.20910261384537 9.408834507615692 4.168641524721333 0 0 0
322 1 10.788209460035937 10.707627477288192 5.497904292771441 0 0 0
313 1 14.871543071161355 12.032731591642072 4.103443371293252 0 0 0
411 1 17.770635166062192 9.303811802112875 4.064187996313792 0 0 0
450 1 16.441527635016175 10.721627632196858 5.3299072029853996 0 0 0
441 1 20.548693888026747 12.16874355469348 4.086243598560407 0 0 0
64 1 1.3842903518456542 14.97524586561711 4.077476459168133 0 0 0
73 1 2.9008253790250405 13.571607466542106 5.424993380030671 0 0 0
188 1 6.844821064240762 14.828162324153897 4.0707546685887595 0 0 0
197 1 7.944226517704083 13.458964295993612 5.39438650604774 0 0 0
315 1 12.181523563097311 14.922694643669825 4.152422403147836 0 0 0
324 1 13.452966694626788 13.314846940631353 5.302836392505983 0 0 0
443 1 17.447314558020654 14.955443477967297 4.158515675784851 0 0 0
452 1 19.03646767154179 13.628323577606775 5.344597603465636 0 0 0
103 1 21.758271154308687 16.343195010204855 5.353430050430974 -1 0 0
94 1 4.123914735151177 17.91676942236758 4.150756170473847 0 0 0
227 1 5.5008239165320125 16.480344852879682 5.403709432382498 0 0 0
218 1 9.193347726301424 17.73713275634632 3.9485041267025363 0 0 0
354 1 10.574659208635575 16.188606402784426 5.268404374841804 0 0 0
345 1 14.705680687592007 17.65898836476092 4.010388876138277 0 0 0
482 1 16.154707082481558 16.382939551650097 5.3233072905913055 0 0 0
473 1 20.250367746103496 17.63047645764789 3.956887610463924 0 0 0
96 1 1.3389359155468186 20.65935998424734 4.068547970793445 0 0 0
105 1 2.6185293527379208 19.08788037553344 5.532270991382504 0 0 0
220 1 6.680147279189543 20.759193794263744 4.166145454324489 0 0 0
229 1 7.917811893675176 19.213687443089594 5.4626521799181385 0 0 0
258 1 10.725727316847115 0.12247002542716431 5.315506026857552 0 0 0
347 1 12.133324903020606 20.340719788729693 4.022715829808052 0 0 0
356 1 13.447129452216357 19.018316177741834 5.368996200553213 0 0 0
475 1 17.583214337746796 20.469920942143695 3.916596090677102 0 0 0
484 1 19.02721908117179 19.182192566094884 5.213890688536828 0 0 0
13 1 1.2953936859307342 1.5227072863009201 6.683660235631108 0 0 0
11 1 21.699151390652165 2.6365533315432033 8.202059169928846 -1 0 0
134 1 5.15327522485472 3.069339552679466 7.883188491221887 0 0 0
136 1 6.554470493124793 1.5151825345213417 6.711803952472741 0 0 0
256 1 10.780469135041747 2.772663915829291 7.984279894132746 0 0 0
261 1 12.243834976735451 1.3673816025375807 6.712814850664706 0 0 0
132 1 9.47659902116512 1.245268648019612 9.572243898558675 0 0 0
262 1 13.4895685833448 21.752807019111643 8.02165531230902 0 -1 0
389 1 17.60100439516623 1.3979548459869864 6.6203091639582565 0 0 0
384 1 16.281265397223393 2.658507644416611 7.936263469950562 0 0 0
390 1 18.89620042470152 0.0620502778165358 8.135188668326114 0 0 0
44 1 1.380155137109598 4.157277381728096 9.392292569057686 0 0 0
12 1 3.115366491803843 4.612993015019239 7.492805509356615 0 0 0
167 1 8.019321897009602 5.59975983380526 7.867492485118818 0 0 0
131 1 9.510711585860275 4.1212986863790455 6.504163257979251 0 0 0
255 1 15.05424377467765 4.013658973176539 6.619585340089077 0 0 0
294 1 13.740728994676312 5.449672875578373 8.073017479104124 0 0 0
383 1 20.607623558931532 4.226090483432721 6.771382077491174 0 0 0
422 1 19.08174512476911 5.530363821100266 8.19974675490796 0 0 0
32 1 1.8246823264245586 7.015784050808473 6.385642458805022 0 0 0
43 1 0.1927385545253248 7.97559086455433 7.967065357443987 0 0 0
38 1 3.584801760856037 9.420738719205369 6.210308280832042 0 0 0
163 1 4.433021691037942 6.987554843369414 7.090960205497288 0 0 0
8 1 4.8021536631518655 7.447117452703003 9.236270109494772 0 0 0
288 1 10.689303855419189 7.8173663019684465 8.122492846879767 0 0 0
293 1 12.280247327963453 6.673403127246708 6.7601829276153085 0 0 0
162 1 9.245324755249303 6.605398767255654 9.452640254743438 0 0 0
289 1 15.014383659948821 6.769078521326949 9.615371191808661 0 0 0
416 1 16.26725493319794 7.972445543582197 8.221021734418331 0 0 0
421 1 17.656453370571786 6.699328038973144 6.714243844467478 0 0 0
415 1 20.52813351347319 9.39695259983786 6.7329831633532065 0 0 0
75 1 2.655059938245786 10.724459831932094 8.061291564381785 0 0 0
74 1 1.6160548134589385 12.274022733706346 6.74043131190063 0 0 0
161 1 9.436929609596039 9.31719049488558 6.855069504672659 0 0 0
199 1 7.928219811356274 10.603111149403523 8.031597004143842 0 0 0
198 1 6.702450911947889 11.972436505130554 6.636213858296776 0 0 0
325 1 12.105203883068533 12.07738409048856 6.7926203368415585 0 0 0
287 1 14.964882558450778 9.311324133564392 6.7651086794005 0 0 0
326 1 13.511785358995652 10.665055106981718 8.061311571036265 0 0 0
453 1 17.807349277071395 12.183568029233465 6.714631561765792 0 0 0
454 1 19.236716200896257 10.71235132858261 8.077026530801005 0 0 0
68 1 4.030957895164404 14.846222193779498 6.640394934774747 0 0 0
193 1 5.4486826870020515 13.46625357220501 8.079826214171508 0 0 0
192 1 9.306956142923296 14.927343939184928 6.802451277199325 0 0 0
320 1 10.648076937611494 13.424433729331072 8.121340879845558 0 0 0
319 1 14.876829874136979 14.868638956773374 6.658471227568517 0 0 0
448 1 16.194970125620348 13.669401851158751 8.050503140804036 0 0 0
69 1 0.11082512438737416 13.581394167456185 8.052177378654592 0 0 0
447 1 20.455146460629802 14.904927013749907 6.651370914436471 0 0 0
106 1 1.2239584030775563 17.79199379258673 6.737086574444422 0 0 0
107 1 2.5763351765526252 16.274191635127767 7.979417795962311 0 0 0
230 1 6.74040225920063 17.7878517846242 6.907056558961908 0 0 0
231 1 8.038269374502665 16.28835950114243 8.129900626781302 0 0 0
357 1 12.057642716946274 17.568315577801826 6.6481842315135395 0 0 0
358 1 13.495748148581153 16.33317568051111 8.046022513083182 0 0 0
485 1 17.60251428654077 17.812652689853124 6.503895355537818 0 0 0
486 1 18.938025893454387 16.323679935945577 7.824849179912467 0 0 0
14 1 2.7328571055337925 0.13030717911475995 8.000720407456187 0 0 0
101 1 21.52993076207291 19.10476372129257 8.03689522624111 -1 0 0
100 1 3.9802734728161204 20.538878747325196 6.628756820366897 0 0 0
225 1 5.2920979419664596 19.042414828089495 8.134163022428146 0 0 0
137 1 8.147004133624922 0.15101598883001113 7.954318849333135 0 0 0
224 1 9.509018582809771 20.45519628126599 6.6807676333847805 0 0 0
352 1 10.775679230526565 18.948333061751274 8.012834163103756 0 0 0
351 1 14.76618580206594 20.385869675273288 6.56086671816429 0 0 0
480 1 16.267673253284986 19.250275546613913 7.927030057006855 0 0 0
479 1 20.186801621586405 20.587335229715503 6.704876244032239 0 0 0
20 1 2.61847133235091 2.752318499780553 10.888516089917793 0 0 0
21 1 1.373522882914562 1.346185757308333 12.175751656816526 0 0 0
18 1 21.73627098007392 21.63667256558582 10.89509767031909 -1 -1 0
9 1 4.1006547013135455 1.6536846895951054 9.371996790949217 0 0 0
141 1 5.502003631801957 0.08719582267674042 10.728614020958943 0 0 0
143 1 8.011430858151726 2.8355156665381065 10.786607544510728 0 0 0
144 1 6.775713381864439 1.4455311114000988 12.266881012533878 0 0 0
269 1 12.127464066828542 1.0713979995605514 12.223298328110346 0 0 0
266 1 10.772882128029249 21.563876249767294 10.91040074075127 0 -1 0
257 1 14.98308508562453 1.2870531007421369 9.382862642613768 0 0 0
268 1 13.507146810385398 2.474602648144147 10.692105144481737 0 0 0
397 1 17.743971196658382 1.3591880022026466 12.210242794321458 0 0 0
385 1 20.311478173665982 1.2986462492119841 9.536919160237861 0 0 0
396 1 19.075862446609527 2.5723290579806526 10.845232049460394 0 0 0
48 1 0.06797794402396291 5.519043746026793 10.693703640460948 0 0 0
39 1 5.491782084536043 5.52508216005884 10.807922352034339 0 0 0
15 1 3.9203630714635196 4.28371382735735 12.057490164103136 0 0 0
171 1 6.7908469538478675 4.302206396157301 9.27734397367935 0 0 0
259 1 12.282779563646091 4.047300984654044 9.405243512477922 0 0 0
138 1 9.434922040877323 4.129007359394256 12.358235551384496 0 0 0
298 1 10.851034118059893 5.356437997643353 10.789009589313729 0 0 0
263 1 15.09525858648104 3.7780351983307696 11.927436629663877 0 0 0
387 1 17.73913125574442 3.9865551969087223 9.303816909683418 0 0 0
426 1 16.508452800866134 5.291936271016361 10.704701339634969 0 0 0
391 1 20.68967717754009 4.075236203602126 12.242446190503191 0 0 0
50 1 2.8473585195868543 8.144447692128995 10.615240107260469 0 0 0
51 1 1.3533753086194633 6.947904743722896 12.200742387155744 0 0 0
173 1 7.921089465730641 8.264451187059187 10.72398002297458 0 0 0
174 1 6.672406896721203 6.9770764798905685 12.348416777034263 0 0 0
301 1 12.098135453883414 6.702042442066357 12.32893198214034 0 0 0
300 1 13.664841240219975 7.9916930754940685 11.029508197425729 0 0 0
295 1 14.799545690203622 9.622839309535166 12.22863279187555 0 0 0
429 1 17.70323583443252 6.781034094531224 12.255375543051414 0 0 0
417 1 20.45208251802483 6.819735596329146 9.391420855500686 0 0 0
428 1 19.031838235448173 8.064158811545363 10.887650143667894 0 0 0
41 1 1.2751074334582324 9.48205255373052 9.458915273779576 0 0 0
82 1 1.3740450499635164 12.10182130129776 12.307593381455941 0 0 0
70 1 4.082115977775516 12.135073109108166 9.576577294560337 0 0 0
203 1 5.45484569226667 10.747853968192608 10.88091380234092 0 0 0
45 1 4.007302815657742 9.565696645837743 12.291432717792356 0 0 0
164 1 6.4282913157504495 9.280669916699646 9.335720455289096 0 0 0
206 1 6.876427791845732 12.108787186843934 12.267422685853287 0 0 0
194 1 9.268604538092195 11.921774314750513 9.551803528945491 0 0 0
291 1 12.128803435818348 9.223659352778428 9.647985371152432 0 0 0
168 1 9.513194225897704 9.227535456861943 12.188625354577171 0 0 0
330 1 10.766249728819206 10.795024943292862 10.8125625103404 0 0 0
333 1 12.28504193143595 12.222705660966849 12.119944330124959 0 0 0
321 1 14.867798877340142 12.109586038590217 9.29553950797735 0 0 0
419 1 17.689216912034087 9.467370842601602 9.45821473851775 0 0 0
458 1 16.249370849741233 10.855856749216887 10.907471388427375 0 0 0
461 1 17.782189157429002 12.021209670751691 12.259488094234952 0 0 0
79 1 21.66081424075251 10.95624839348078 10.820893667211251 -1 0 0
449 1 20.402694517715677 12.34228004962929 9.510746208120974 0 0 0
423 1 20.54477153484921 9.472382786603967 12.2039763930534 0 0 0
72 1 1.3692502229467076 14.775670113114112 9.412598370133948 0 0 0
81 1 2.734947878818421 13.622631102721506 10.896404679865677 0 0 0
76 1 4.084002734822578 14.891875172787941 12.146091763519136 0 0 0
196 1 6.710773371352008 14.856221115738036 9.431799267528346 0 0 0
205 1 8.013988090445686 13.506699570457302 10.875314261300787 0 0 0
323 1 12.149508528996334 14.780165151306495 9.261355323570495 0 0 0
200 1 9.60061938430281 14.75047451622746 12.189884562927233 0 0 0
332 1 13.541407489180923 13.567210404219464 10.731593969411007 0 0 0
327 1 14.957814830025155 14.940480819000642 12.191333838250738 0 0 0
451 1 17.73609219872949 14.887391950557314 9.390778586721924 0 0 0
460 1 19.085694500801463 13.377807483187711 10.841611970902939 0 0 0
455 1 20.357416583628133 14.807123729221022 12.259001385927947 0 0 0
114 1 1.2669646726948625 17.61083404086601 12.00631743553397 0 0 0
111 1 21.673475563808235 16.09486658261729 10.732516273919316 -1 0 0
102 1 3.9003014163299436 17.621366592216166 9.423482716323264 0 0 0
235 1 5.377731490818441 16.27532387556015 10.821500446658055 0 0 0
238 1 6.645231533147654 17.848498610755822 12.17317981550338 0 0 0
226 1 9.368754103416876 17.60344173200882 9.381394107157305 0 0 0
362 1 10.73239632987088 16.096248869727706 10.767550976395702 0 0 0
365 1 12.12069878004079 17.472056561043114 12.245863834866096 0 0 0
353 1 14.98281633728929 17.705075667389856 9.304084227248469 0 0 0
490 1 16.31925894066229 16.422775640310395 10.877321099550835 0 0 0
493 1 17.727543691276622 17.642407975366016 12.334407479334416 0 0 0
481 1 20.384933310970695 17.682742538876987 9.378874683946806 0 0 0
104 1 1.3470866802312795 20.623529854160733 9.29794122708313 0 0 0
113 1 2.6003939759219774 19.05275853494436 10.586607965608522 0 0 0
108 1 4.031809774575777 20.508911504584116 12.135461273954808 0 0 0
228 1 6.754033550610248 20.607502950480995 9.16155449217498 0 0 0
237 1 8.044413449523491 19.0765785636392 10.675706138137421 0 0 0
355 1 12.264311760124855 20.26626757839151 9.44088542750452 0 0 0
232 1 9.321932149114623 20.324972417163288 12.410090627714984 0 0 0
364 1 13.625223957964755 18.953335311645368 10.859886261629926 0 0 0
359 1 14.93019235285003 20.355676315135213 12.21496087138581 0 0 0
394 1 16.36210552209967 0.016208775492328797 10.715320214338771 0 0 0
483 1 17.67097721431844 20.35042611695199 9.495402811176326 0 0 0
492 1 19.09442651188437 18.999017907267376 10.894419963102216 0 0 0
487 1 20.390307069515057 20.398779033619835 12.22959604936994 0 0 0
16 1 0.18769967652125885 2.713792838739411 13.662166200273651 0 0 0
17 1 4.364487193147525 1.428465673337189 14.982448335649956 0 0 0
139 1 5.3936377389971195 2.9184535119626527 13.50766478776691 0 0 0
145 1 8.01580568594266 0.10572759253893947 13.763438401092221 0 0 0
140 1 9.43817942693323 1.3949247250418206 15.224574304653034 0 0 0
264 1 10.696201825703833 2.6829167496731037 13.669370549923924 0 0 0
265 1 14.940299638444925 1.4473904393967574 14.898108367629732 0 0 0
270 1 13.62779198519579 21.661109756937897 13.591038260938422 0 -1 0
392 1 16.495263307845107 2.6891058837073376 13.615644299847197 0 0 0
393 1 20.338420628816692 1.5040103741527697 14.957132295604177 0 0 0
19 1 1.6381347479495465 4.122086550689149 15.027488640741165 0 0 0
52 1 2.7837122359298574 5.560791382933826 13.566003806965425 0 0 0
142 1 6.691301929509364 4.089908884921904 15.069707768546113 0 0 0
175 1 8.055837091155297 5.5006288011586495 13.734586654135654 0 0 0
267 1 12.183582119345639 3.989646782257118 14.936219068259682 0 0 0
302 1 13.687171928048762 5.232257501930299 13.45445231856873 0 0 0
395 1 17.848243428809077 4.238708513221642 14.80162808987998 0 0 0
430 1 19.267219980210083 5.351731811001204 13.486859539742978 0 0 0
47 1 4.030115640625479 6.87340289220078 14.956491013134618 0 0 0
169 1 5.379151262909554 8.27231519542921 13.7387000906252 0 0 0
170 1 9.499810812607441 6.806270145411998 14.88481550889607 0 0 0
296 1 10.895160637115293 8.0117165146298 13.655742188210102 0 0 0
297 1 15.128505656611521 6.805916010131872 14.711539971231705 0 0 0
424 1 16.556225415941313 8.288948140139436 13.58484741041437 0 0 0
46 1 0.03162352401860649 8.146169684618643 13.63812248987878 0 0 0
425 1 20.57194062354075 6.676622746295313 15.045765286245878 0 0 0
49 1 1.2326818491272098 9.529676901624214 15.077585112944968 0 0 0
83 1 2.615618058738039 10.815068600338774 13.758395917604355 0 0 0
78 1 4.123321868227845 12.33851359808711 14.997830453108815 0 0 0
172 1 6.775566489761925 9.593513064732784 15.09327016208681 0 0 0
207 1 8.23081877805258 10.70283701877225 13.575561526708647 0 0 0
202 1 9.587312809770557 12.217236403078175 14.962900180264644 0 0 0
299 1 12.319477316590826 9.374360541158692 14.99104410272292 0 0 0
334 1 13.554195745101017 10.90160882467649 13.600438155884689 0 0 0
329 1 15.027592267852615 12.068654096806156 14.930981880773084 0 0 0
427 1 17.852655034590953 9.591447216819363 14.998689898569662 0 0 0
462 1 19.11675845837888 10.76468112332997 13.51160187751304 0 0 0
457 1 20.386794822062278 12.207173533832353 15.093078173339256 0 0 0
80 1 1.217091579945007 15.027007644204364 14.74305700030481 0 0 0
201 1 5.613424591540919 13.555703891278558 13.618159207520568 0 0 0
204 1 6.88895595006531 15.039759801468067 14.87638246655527 0 0 0
328 1 10.96857130563042 13.535295930484281 13.495541189254514 0 0 0
331 1 12.3648590526154 14.776786340946217 14.849421849559448 0 0 0
456 1 16.402685666587914 13.540835845771488 13.463958758143068 0 0 0
459 1 17.763081138843344 14.930455881406413 14.954047387011517 0 0 0
77 1 21.62977687600183 13.54401077935812 13.581475282110056 -1 0 0
115 1 2.712346273978606 16.334040530533652 13.3234730773434 0 0 0
110 1 3.9951413756285286 17.727331268417082 14.810865764843404 0 0 0
239 1 8.172864669991776 16.361007109789004 13.514488729993385 0 0 0
234 1 9.513762472267466 17.658732075121485 14.933349774634669 0 0 0
361 1 14.974748315365682 17.74774150108391 14.919916395203261 0 0 0
366 1 13.630124342489394 16.2295865106059 13.505741833680412 0 0 0
489 1 20.546082245727675 17.707643133746615 14.701490922920891 0 0 0
494 1 19.218733652375782 16.27287954514726 13.644559839789604 0 0 0
22 1 2.8748842585732537 0.1797172403628358 13.611795611568485 0 0 0
112 1 1.2542109004428195 20.5400001661633 14.877664036883598 0 0 0
109 1 0.014837205441449806 19.129729869714918 13.467395064958241 0 0 0
233 1 5.474067374896354 19.15449230695109 13.706102371544707 0 0 0
236 1 6.867646869184564 20.42134017909599 15.16338354116991 0 0 0
360 1 10.927476700645048 18.98276427582329 13.619350467306283 0 0 0
363 1 12.200676084927794 20.36497529727007 15.04219936226871 0 0 0
488 1 16.30478141276211 19.13938232599631 13.619822876007419 0 0 0
491 1 17.647559626572964 20.369084150573872 14.935903813353773 0 0 0
398 1 19.118423083397534 0.06328200948197227 13.601515893208921 0 0 0
29 1 1.2750989785746876 1.407808729999051 17.885289676428695 0 0 0
28 1 2.728328865683376 2.7584554482888892 16.47069992633519 0 0 0
26 1 0.03470934180863949 0.14433616360448356 16.424325938278407 0 0 0
149 1 5.448654839777747 0.01525763212887752 16.49355592080055 0 0 0
152 1 6.775137046282259 1.4676322511723643 17.940960655856944 0 0 0
151 1 8.067869978108261 2.67686499172317 16.504340934831912 0 0 0
277 1 12.115437444784801 1.4451339831579824 17.682543000906268 0 0 0
274 1 10.922437288542756 0.10810402187782486 16.37053207457673 0 0 0
276 1 13.628040659983174 2.6484017391179435 16.403026924621944 0 0 0
405 1 17.686979808981675 1.3907155752325073 17.671313827690973 0 0 0
402 1 16.458302005499522 0.055396722305203365 16.315794461358696 0 0 0
404 1 19.083600154584065 2.9961805763236753 16.46571348429962 0 0 0
56 1 0.0896898549527847 5.444901894478483 16.41077901742422 0 0 0
23 1 3.984327969788429 4.142526692982491 17.879478653104396 0 0 0
179 1 5.285177262373572 5.418080874569701 16.34210796619552 0 0 0
146 1 9.52222090433761 4.2741043014188875 17.656567241856944 0 0 0
306 1 10.993769426354 5.412849708241176 16.320611908315215 0 0 0
271 1 14.978656729526683 3.996391537988026 17.73952917015751 0 0 0
434 1 16.3589113911889 5.321123132451797 16.327470014151253 0 0 0
399 1 20.58815445196186 4.144242738058926 17.743700317978544 0 0 0
59 1 1.4150492875010416 6.724000018692826 17.82471931400216 0 0 0
58 1 2.6854563859147977 8.160451638545 16.32212323176847 0 0 0
181 1 8.092988668703578 8.126412486934576 16.301649923344282 0 0 0
182 1 6.704848816727245 6.879288901510613 17.648851914194267 0 0 0
309 1 12.379142125259174 6.815614449932623 17.662280507406486 0 0 0
308 1 13.877219837430602 7.996697406072818 16.298780798607314 0 0 0
437 1 17.767309666509128 6.74110171792428 17.738588539525274 0 0 0
436 1 19.11315204288173 8.066569056689548 16.363154712632923 0 0 0
90 1 1.542740267030952 12.085900335631253 17.80783127117066 0 0 0
53 1 3.9469197963542055 9.600851812275328 17.705242690982356 0 0 0
211 1 5.422460762213139 11.016294733372968 16.43063705592778 0 0 0
214 1 6.875984481556679 12.430779164600215 17.728006245935102 0 0 0
176 1 9.346635406693999 9.539891749413771 17.79527127905238 0 0 0
338 1 11.064752145811548 10.745390709625847 16.34859521920694 0 0 0
341 1 12.258571789939214 12.210289187371737 17.676845294053535 0 0 0
303 1 15.142130050896172 9.424346353822967 17.688017012998646 0 0 0
466 1 16.37262587560289 10.787673844401949 16.362898104433356 0 0 0
469 1 17.94091395446769 12.103038265287438 17.776634868890742 0 0 0
87 1 21.710299196439728 10.883877781265625 16.486631428489872 -1 0 0
431 1 20.43841995223258 9.379420154140258 17.734109651230344 0 0 0
89 1 2.568214314159968 13.670572209963137 16.233355221120352 0 0 0
84 1 4.01585559570335 14.974451414192563 17.681253074561525 0 0 0
213 1 8.247776030013867 13.58018339060227 16.343425031005427 0 0 0
208 1 9.61285974577331 14.973987849294597 17.620631119629316 0 0 0
335 1 15.109622804256698 14.746813933568346 17.728115347742666 0 0 0
340 1 13.629160756494805 13.440957491643578 16.25406930821263 0 0 0
463 1 20.491368238474895 14.986288577723709 17.858498815633453 0 0 0
468 1 19.145751626107597 13.62361568394472 16.37904025641673 0 0 0
122 1 1.3613791413955667 17.76818817600103 17.84395137170675 0 0 0
243 1 5.4731691769218465 16.33085898846375 16.241834462492932 0 0 0
246 1 6.838591839363986 17.500790662543793 17.773423628149054 0 0 0
370 1 10.98504134540697 16.25270331288105 16.123558472686994 0 0 0
373 1 12.09859781058722 17.675572999219575 17.598590619105757 0 0 0
498 1 16.209400797101477 16.228265963595028 16.189233455173333 0 0 0
501 1 17.631368148877616 17.59407764993477 17.350422287618375 0 0 0
119 1 21.7586023821957 16.426026675909565 16.218058249383077 -1 0 0
121 1 2.4638104122929723 19.286718901420056 16.26927334744775 0 0 0
116 1 3.9571891940333805 20.464686665879743 17.66588964570309 0 0 0
245 1 8.218971740753815 19.10515073523652 16.47896696072971 0 0 0
240 1 9.699198798419616 20.398870135461788 17.861766439722636 0 0 0
367 1 15.002301945301573 20.36258677366184 17.588266416415593 0 0 0
372 1 13.556773073340333 19.020424457827502 16.37997656051069 0 0 0
500 1 19.167848250136956 18.988657757714186 16.183843987154983 0 0 0
495 1 20.41685013545431 20.379871117788433 17.630357993944166 0 0 0
24 1 0.07541943951273546 2.761653121884764 19.311641873959168 0 0 0
30 1 2.6694243511590443 0.1857268992156874 19.256063415963954 0 0 0
5 1 3.9748225014845286 1.4348561981437815 20.55514107008393 0 0 -1
25 1 5.455262595205591 2.9194297766375366 19.322384773107082 0 0 0
148 1 9.416532691231064 1.6395562283202094 20.589131143399673 0 0 0
153 1 8.377576058035704 0.010414908987169014 19.266663588333934 0 0 0
272 1 10.598452904482375 2.7260231290647097 18.881768208575203 0 0 0