LAMMPS (10 Sep 2025)
OMP_NUM_THREADS environment is not set. Defaulting to 1 thread.
  using 1 OpenMP thread(s) per MPI task
Loaded 1 plugins from C:\Users\lmike\AppData\Local\LAMMPS 64-bit 10Sep2025 with GUI\plugins
# LAMMPS input generated from LammpsInputFile with pymatgen v2025.10.7

# STYLES
units metal
atom_style atomic

# SET UP CALCULATION
read_data starting_config.dat
Reading data file ...
  orthogonal box = (0 0 0) to (21.763403 21.763403 21.763403)
  1 by 1 by 1 MPI processor grid
  reading atoms ...
  502 atoms
  read_data CPU = 0.003 seconds
pair_style sw
pair_coeff * * Si.sw Si
Reading sw potential file Si.sw with DATE: 2007-06-11
velocity all create 800 7120856

# CALCULATION PARAMETERS
fix f1 all nvt temp 800.0 800.0 $(100.0*dt)
fix f1 all nvt temp 800.0 800.0 0.10000000000000000555
thermo 100000
thermo_style custom step temp press spcpu cpuremain

# RUN CALC AND WRITE OUTPUTS
dump d1 all custom 100 state_dump id type x y z vx vy vz
run 10000000
Neighbor list info ...
  update: every = 1 steps, delay = 0 steps, check = yes
  max neighbors/atom: 2000, page size: 100000
  master list distance cutoff = 5.77118
  ghost atom cutoff = 5.77118
  binsize = 2.88559, bins = 8 8 8
  1 neighbor lists, perpetual/occasional/extra = 1 0 0
  (1) pair sw, perpetual
      attributes: full, newton on
      pair build: full/bin/atomonly
      stencil: full/bin/3d
      bin: standard
Per MPI rank memory allocation (min/avg/max) = 3.116 | 3.116 | 3.116 Mbytes
   Step          Temp          Press          S/CPU         CPULeft    
         0   800            85.148543      0              0            
    100000   845.53452     -11431.388      628.07067      15762.557    
    200000   819.78934     -13626.632      639.40192      15465.081    
    300000   718.64426     -13207.37       844.7868       14032.245    
    400000   799.12521     -13136.991      780.75498      13489.635    
    500000   844.69859     -13313.791      715.17517      13335.986    
    600000   831.63252     -14641.834      728.05611      13148.188    
    700000   792.14124     -14175.776      735.8123       12955.568    
    800000   786.86123     -15440.638      732.88195      12783.376    
    900000   814.60562     -15199.876      718.33649      12647.063    
   1000000   786.06747     -16043.375      729.22392      12491.465    
   1100000   814.02374     -15536.073      731.66263      12335.526    
   1200000   735.98282     -16599.584      743.15196      12167.302    
   1300000   808.24348     -15488.649      736.4704       12012.427    
   1400000   817.46689     -16100.605      743.12794      11852.806    
   1500000   830.99328     -15479.265      737.02441      11702.842    
   1600000   773.52556     -16104.673      733.69896      11557.891    
   1700000   765.62873     -13543.637      738.68655      11409.465    
   1800000   784.14394     -14545.371      728.38498      11271.212    
   1900000   796.1346      -14839.743      735.27844      11127.573    
   2000000   824.94779     -15471.523      742.31535      10979.54     
   2100000   795.08978     -14287.463      745.81224      10830.4      
   2200000   791.18449     -14898.401      733.65356      10690.507    
   2300000   790.55174     -13114.331      732.10654      10551.89     
   2400000   785.9873      -13541.987      711.55683      10425.934    
   2500000   812.33344     -12385.57       738.79992      10283.264    
   2600000   835.95937     -12750.137      745.44881      10137.722    
   2700000   758.16125     -16503.491      733.5592       9998.9015    
   2800000   785.98513     -15007.222      741.4829       9856.5139    
   2900000   765.4328      -15646.561      737.3342       9716.5029    
   3000000   775.72731     -16270.667      738.84884      9576.1356    
   3100000   773.53096     -15209.28       726.50572      9441.2105    
   3200000   779.56223     -14538.256      733.73521      9303.2335    
   3300000   820.95347     -15832.78       723.62946      9169.2231    
   3400000   717.86356     -15231.778      733.29845      9031.4296    
   3500000   761.45576     -15392.595      737.68082      8892.2129    
   3600000   787.29701     -15245.631      732.42217      8754.9296    
   3700000   744.48348     -15509.894      738.10103      8615.8982    
   3800000   813.5214      -15661.35       729.52509      8479.6522    
   3900000   850.76106     -14998.852      721.98769      8345.6019    
   4000000   758.28515     -15899.555      741.4099       8205.8863    
   4100000   792.02315     -15225.53       727.7474       8070.0505    
   4200000   786.12887     -15226.833      729.38851      7933.7127    
   4300000   742.39589     -16414.67       738.93298      7794.992     
   4400000   776.64914     -15501.886      734.50359      7657.4641    
   4500000   844.58927     -15369.771      739.3401       7518.9091    
   4600000   800.02974     -15251.462      745.25234      7379.2379    
   4700000   781.5762      -14352.253      739.54918      7240.9671    
   4800000   857.48022     -13872.96       730.40354      7104.6577    
   4900000   784.74518     -14694.919      731.57471      6968.0957    
   5000000   786.3651      -15137.591      740.76904      6829.8319    
   5100000   826.39178     -14739.882      733.04958      6693.0621    
   5200000   750.52093     -13781.385      749.53168      6553.5368    
   5300000   809.60376     -14219.025      743.89122      6415.1392    
   5400000   826.29371     -13705.435      722.71914      6280.2433    
   5500000   801.80598     -15060.235      736.33022      6143.1285    
   5600000   836.22623     -13989.101      740.01571      6005.5289    
   5700000   836.07227     -14831.194      739.84866      5868.0389    
   5800000   796.37231     -15093.931      746.30388      5729.7826    
   5900000   811.32914     -14266.703      745.25749      5591.8014    
   6000000   776.75712     -15847.557      746.98051      5453.7406    
   6100000   750.34302     -15989.34       730.87411      5317.7033    
   6200000   803.7122      -14912.317      737.90605      5180.8416    
   6300000   788.41979     -15791.334      737.17974      5044.1009    
   6400000   816.8128      -14461.376      731.48282      4907.9884    
   6500000   768.90976     -15465.588      746.01922      4770.4233    
   6600000   800.17128     -14748.908      748.48651      4632.7372    
   6700000   783.52229     -14216.765      743.69448      4495.5971    
   6800000   728.70744     -14865.928      743.0094       4358.594     
   6900000   808.72026     -13325.402      741.80766      4221.7588    
   7000000   816.58544     -14866.826      708.07585      4087.7339    
   7100000   782.3922      -14857.149      745.99867      3950.5737    
   7200000   820.0033      -15621.911      737.91757      3814.0709    
   7300000   770.94425     -15867.353      724.58994      3678.5169    
   7400000   792.57026     -14614.745      740.96396      3541.8251    
   7500000   775.08239     -15598.927      730.12695      3405.8472    
   7600000   796.30443     -15499.183      732.81444      3269.6848    
   7700000   742.49699     -16294.469      738.97703      3133.1747    
   7800000   852.29014     -14340.13       732.54215      2997.0304    
   7900000   828.2916      -14513.723      734.62527      2860.7739    
   8000000   815.47518     -15250.857      734.63006      2724.5204    
   8100000   816.49113     -15436.066      720.24971      2588.9077    
   8200000   782.21845     -15414.273      728.63589      2452.8655    
   8300000   807.16911     -16305.344      734.42128      2316.573     
   8400000   776.12242     -15543.322      737.31812      2180.1816    
   8500000   834.2006      -14832.171      733.5558       2043.931     
   8600000   784.69639     -13888.406      727.92584      1907.8504    
   8700000   777.65225     -14699.537      736.67578      1771.4962    
   8800000   805.31178     -14913.453      729.66777      1635.3336    
   8900000   793.23963     -15723.13       737.74012      1498.9657    
   9000000   768.63964     -15225.135      729.98451      1362.776     
   9100000   738.08531     -16486.105      735.22855      1226.4722    
   9200000   777.06954     -14642.566      739.09155      1090.1128    
   9300000   797.06578     -15483.816      741.92175      953.73742    
   9400000   773.91587     -14340.117      749.5175       817.30864    
   9500000   808.94113     -15041.849      726.33563      681.16734    
   9600000   791.8545      -14462.945      737.0099       544.91095    
   9700000   792.18571     -14934.092      736.1882       408.67106    
   9800000   772.87598     -15348.251      747.42725      272.39775    
   9900000   778.87631     -14632.977      747.84822      136.17381    
  10000000   863.71953     -14248.842      758.35448      0            
Loop time of 13613.1 on 1 procs for 10000000 steps with 502 atoms

Performance: 63.468 ns/day, 0.378 hours/ns, 734.588 timesteps/s, 368.763 katom-step/s
99.5% CPU use with 1 MPI tasks x 1 OpenMP threads

MPI task timing breakdown:
Section |  min time  |  avg time  |  max time  |%varavg| %total
---------------------------------------------------------------
Pair    | 13353      | 13353      | 13353      |   0.0 | 98.09
Neigh   | 5.0104     | 5.0104     | 5.0104     |   0.0 |  0.04
Comm    | 38.875     | 38.875     | 38.875     |   0.0 |  0.29
Output  | 141.64     | 141.64     | 141.64     |   0.0 |  1.04
Modify  | 59.898     | 59.898     | 59.898     |   0.0 |  0.44
Other   |            | 14.2       |            |       |  0.10

Nlocal:            502 ave         502 max         502 min
Histogram: 1 0 0 0 0 0 0 0 0 0
Nghost:           1396 ave        1396 max        1396 min
Histogram: 1 0 0 0 0 0 0 0 0 0
Neighs:              0 ave           0 max           0 min
Histogram: 1 0 0 0 0 0 0 0 0 0
FullNghs:        17440 ave       17440 max       17440 min
Histogram: 1 0 0 0 0 0 0 0 0 0

Total # of neighbors = 17440
Ave neighs/atom = 34.741036
Neighbor list builds = 7096
Dangerous builds = 0
write_data FINAL_STRUCTURE
System init for write_data ...
Total wall time: 3:46:53
