LAMMPS data file via write_data, version 10 Sep 2025, timestep = 10000000, units = metal

513 atoms
1 atom types

0 21.77481 xlo xhi
0 21.77481 ylo yhi
0 21.77481 zlo zhi

Masses

1 28.085

Atoms # atomic

7 1 1.367165630397189 1.0334922135294486 1.4556352961279944 0 0 0
6 1 2.796910122372334 2.718811890393257 0.1859764061098513 0 0 0
2 1 0.10501717121771037 2.6157945221668806 2.576170089111617 0 0 0
130 1 5.420481094780858 2.6459781892312755 2.809286266919064 0 0 0
132 1 5.572100430744926 21.749988419954907 0.06317014449983867 0 -1 0
135 1 6.912329884666745 1.3999476814202354 1.3941865110145353 0 0 0
136 1 8.228989824417475 0.008838491484620903 2.731203366819138 0 0 0
134 1 8.309405039786213 2.7075295803029533 21.77225004462411 0 0 -1
258 1 11.002576868102441 2.8198548492491904 2.6661017982134165 0 0 0
263 1 12.21268070643124 1.402490225683121 1.2411050453878762 0 0 0
260 1 10.96163078486653 21.72332678434983 21.712862809871893 0 -1 -1
262 1 13.693758374713648 2.693388909326386 21.68387693435131 0 0 -1
386 1 16.396316053636863 2.736602499097653 2.7115072127646354 0 0 0
391 1 17.780283441466754 1.3908572627537008 1.3237646266106464 0 0 0
388 1 16.487126552039054 21.70176339686104 0.0021847504094978376 0 -1 0
390 1 19.13640660079545 2.6062654144152644 21.631984921697633 0 0 -1
40 1 2.7702784636484847 5.479090250411078 2.7500510585652416 0 0 0
513 1 4.190618555354725 4.13414990854714 1.4833139841832101 0 0 0
164 1 5.535454937938395 5.363393777359808 0.010958172178035852 0 0 0
168 1 8.221210538923671 5.417236854616633 2.8328070389371716 0 0 0
129 1 9.512777383410503 4.119104105145945 1.4450172375994355 0 0 0
257 1 15.003351398229855 4.009413290645438 1.3158455698024136 0 0 0
296 1 13.727111237491297 5.360855868047854 2.8273103944770903 0 0 0
420 1 16.354271102596936 5.484946645797835 21.72171438702668 0 0 -1
385 1 20.385818811747228 4.040547804143022 1.2760894858242517 0 0 0
424 1 19.011614053780534 5.387620865718558 2.5935182651709763 0 0 0
36 1 21.610100604482092 5.426531861122723 21.659631264086975 -1 0 -1
39 1 1.291778854286574 6.635274087149996 1.2251485415101986 0 0 0
162 1 5.429984022207204 8.163647335266663 2.559182235812221 0 0 0
167 1 6.79472871890914 6.727414069547803 1.322918084986497 0 0 0
290 1 10.854565497383765 8.367921030618293 2.595588872907386 0 0 0
295 1 12.317574344063917 6.802334646566395 1.5044890213552287 0 0 0
294 1 13.62422345331621 8.077782043588556 0.18754030067930216 0 0 0
418 1 16.26383085902423 8.08155963020736 2.685547692296517 0 0 0
423 1 17.67957435564352 6.8114139173585055 1.4381213430144622 0 0 0
34 1 0.08419786184553502 8.171603339009852 2.7150847563470673 0 0 0
422 1 18.96756974957604 8.080128999751196 0.0035082133059738396 0 0 0
71 1 1.35148170554718 12.191912233284413 1.1423130599173 0 0 0
72 1 2.7278147918409528 10.796730621540778 2.6808124118534673 0 0 0
33 1 4.04187325775561 9.20888349187314 1.2138137770117325 0 0 0
199 1 6.822439857742701 12.279679343900318 1.223927522955515 0 0 0
200 1 8.214871895101309 10.914733787823653 2.5644468081841474 0 0 0
161 1 9.56343430688359 9.713807536783687 1.1541488168374636 0 0 0
327 1 12.223201552697123 12.216938173857136 1.4791334092835 0 0 0
324 1 11.000072066883467 10.948537738815977 21.746953616160706 0 0 -1
289 1 14.847877092890709 9.504240959058755 1.5671861021746665 0 0 0
328 1 13.492059538719007 10.731943355347168 2.8484901335325263 0 0 0
455 1 17.599312001196793 12.208947805205867 1.5259647009544062 0 0 0
452 1 16.107720967501866 10.9711242483189 0.11049439382734931 0 0 0
417 1 20.503636910589233 9.393721693532678 1.3457042360558744 0 0 0
456 1 19.032510035296756 10.737751494158257 2.743889547460362 0 0 0
65 1 4.104300079308108 14.93875197145279 1.3521797015906392 0 0 0
194 1 5.5028287547513495 13.533059742315404 2.705012074100595 0 0 0
198 1 8.072727044792854 13.668178123847778 21.682720347048573 0 0 -1
193 1 9.458791174444265 15.016533684572893 1.304402537414622 0 0 0
322 1 10.958110808516526 13.701203476326054 2.6999853317423494 0 0 0
321 1 14.906847964337484 14.877491989692759 1.5760009750752626 0 0 0
450 1 16.24343366015098 13.620819038451193 2.8634423357286045 0 0 0
66 1 21.725143882298873 13.505205699033198 2.765624518280752 -1 0 0
449 1 20.2044345640464 14.661908220162228 1.3119299019967312 0 0 0
103 1 1.369374647491549 17.64003054772474 1.4376438640487752 0 0 0
104 1 2.7201205597060834 16.290350890903074 2.8239478229331003 0 0 0
231 1 6.776395870090329 17.612693633024925 1.4288042762640936 0 0 0
232 1 8.197943028744335 16.145374155650224 2.81892753850973 0 0 0
359 1 12.38872501164044 17.578317941091782 1.4063037075980929 0 0 0
356 1 10.750402870748324 16.522779500637068 0.10368504924156637 0 0 0
360 1 13.54792962977701 16.30125861646447 2.8084416954028386 0 0 0
487 1 17.422353251470025 17.58195280966801 1.4823718451182109 0 0 0
488 1 18.93097622251338 16.27044683784851 2.660478812219418 0 0 0
8 1 2.8056204238380795 21.703868836381425 2.8813369671654705 0 -1 0
102 1 2.73771210050795 19.046257877460384 21.76615995875428 0 0 -1
98 1 21.76243062141761 18.9338606295033 2.9589928337970495 -1 0 0
97 1 4.234368707124599 20.447292239754383 1.5030669429909398 0 0 0
226 1 5.427195177164164 19.029685865100088 2.857000983521627 0 0 0
230 1 8.099071873430312 19.063592321713237 0.06739635283199519 0 0 0
225 1 9.625698740507724 20.331058728753302 1.2971058740796304 0 0 0
354 1 10.974913720115843 19.007608585251987 2.6269775483690228 0 0 0
264 1 13.566674319845015 0.0004532109779020743 2.736269912528762 0 0 0
353 1 15.09662550347629 20.577766263169757 1.390606455983274 0 0 0
358 1 13.729025475526056 19.082430033805426 0.020474270640743697 0 0 0
482 1 16.194485452965782 19.136413568817538 2.7678025536708684 0 0 0
392 1 19.01278984457096 21.707577360880858 2.9304261895115746 0 -1 0
481 1 20.216590829165195 20.04184212341427 1.7120154034147086 0 0 0
486 1 18.779718854946996 18.923058855339463 0.12757438853220662 0 0 0
4 1 21.559174431058167 21.43219096105123 0.31540867945304285 -1 -1 0
14 1 2.6607459001094615 2.7448028003097 5.457960124064938 0 0 0
3 1 4.233707909992624 1.3006861261763842 4.125967299208985 0 0 0
142 1 8.120327150898706 2.8222104524784295 5.530085698657874 0 0 0
131 1 9.615440550206834 1.5023923467070586 3.962177589914379 0 0 0
259 1 14.957276854800893 1.4314408006830972 4.118533432002716 0 0 0
270 1 13.531083230295817 2.717242464389723 5.600268909288459 0 0 0
387 1 20.513295927739147 1.2974767423237357 4.030892155762509 0 0 0
398 1 19.121879124091194 2.741536120829605 5.564527335106083 0 0 0
5 1 1.480615045943161 3.9498462951196784 3.9272226605391167 0 0 0
172 1 5.527689413298984 5.5634275056632285 5.447551349567859 0 0 0
133 1 6.768439423503187 4.178416424436637 4.065485926888301 0 0 0
261 1 12.303783862196074 4.015824839410095 4.181880811847278 0 0 0
300 1 10.857186821973158 5.534111931435305 5.38535625547063 0 0 0
389 1 17.733329145857102 4.148211332386461 4.175461134372859 0 0 0
428 1 16.117065844024996 5.513669756478478 5.451479979428819 0 0 0
44 1 0.19583857451174794 5.362890571854311 5.360050060270903 0 0 0
46 1 2.7512258014334683 8.298587623837246 5.4258452827670896 0 0 0
35 1 4.095569481105651 6.822841594097889 4.133644985677786 0 0 0
174 1 8.223897381849198 8.288557154818378 5.247356851587168 0 0 0
163 1 9.649667944245682 6.8904239070375795 3.949228090159571 0 0 0
291 1 14.920372706563473 6.855055247478979 3.99622711614874 0 0 0
302 1 13.492247121737197 8.260202485868009 5.477522173936418 0 0 0
419 1 20.482028334700075 6.618378985790328 4.039537827175438 0 0 0
430 1 19.002638706800425 8.075971757210356 5.371530505676143 0 0 0
37 1 1.296107149765763 9.559219689748888 4.034018150047272 0 0 0
76 1 21.62939658882818 11.01477647102124 5.453387659603093 -1 0 0
67 1 4.035073055098856 12.309138572123132 3.8938325066818695 0 0 0
204 1 5.4121595006426855 10.877729764293871 5.239663679288658 0 0 0
165 1 6.7502657990646115 9.57944443551004 3.8323375409223353 0 0 0
195 1 9.517861559919137 12.271121269060433 4.045798327173255 0 0 0
332 1 10.962382514938493 11.037076498669217 5.43301953909144 0 0 0
293 1 12.075272169892802 9.522439354949427 4.114106611874626 0 0 0
323 1 14.913548690217743 12.18353955247626 4.081111424113889 0 0 0
421 1 17.707329926101814 9.392192152395618 4.069347886434346 0 0 0
460 1 16.339419620620408 10.760022560423238 5.271566646043553 0 0 0
451 1 20.291233453488154 12.13621539886581 4.051618635725389 0 0 0
69 1 1.1475784055641367 15.079621151009736 4.025086131009624 0 0 0
78 1 2.7735343293758703 13.78069510550384 5.276717355224027 0 0 0
197 1 6.723438149106057 14.781520489029006 4.192335907793868 0 0 0
206 1 8.038704002889173 13.457689579123924 5.47333939755789 0 0 0
325 1 12.223008373922907 15.065828626138423 4.083099507800555 0 0 0
334 1 13.602393001604714 13.505942515500337 5.412521981307099 0 0 0
453 1 17.669991063999877 14.97416720118892 4.083726823988279 0 0 0
462 1 19.04807612911717 13.627857354003046 5.380186523105384 0 0 0
99 1 4.104425072162174 17.67730438346391 4.219577915909908 0 0 0
236 1 5.504932865619852 16.374094709674434 5.44405194017951 0 0 0
227 1 9.555329489268205 17.7634878317144 3.9859440751245483 0 0 0
364 1 10.767836101027102 16.309440353776626 5.464336112063801 0 0 0
355 1 15.01446286905476 17.679986930973264 4.075035277169689 0 0 0
492 1 16.382850656127676 16.424924968432258 5.432695144023035 0 0 0
108 1 21.496420271311248 16.217286562935115 5.4254632665812945 -1 0 0
483 1 20.281005701910725 17.550386941595324 4.123638138772649 0 0 0
101 1 1.3113413065303559 20.429188106090532 4.176506157028786 0 0 0
110 1 2.653418399333586 19.134913990173384 5.433981985219234 0 0 0
140 1 5.513515647484743 21.70162924833662 5.541495609654287 0 -1 0
229 1 6.872530646966374 20.38207459616186 4.210946219234622 0 0 0
238 1 8.266738165702419 19.14707253635924 5.467444665036314 0 0 0
268 1 10.835212014902577 0.0045619731581076906 5.315188110610853 0 0 0
357 1 12.218456791543224 20.338446320984808 4.032642577227085 0 0 0
366 1 13.630828731641264 18.97156451949225 5.333770376786423 0 0 0
396 1 16.323412381179153 0.040343835062004584 5.329451736340237 0 0 0
485 1 17.772956724615963 20.403473509037482 4.1613174519682135 0 0 0
12 1 0.08281787898807126 21.738406604808432 5.6853979909699595 0 -1 0
494 1 19.17231178594395 19.001237583107656 5.4274155442045675 0 0 0
15 1 1.3192532762346207 1.5371131146371195 6.865522622589638 0 0 0
10 1 21.7439386623313 2.8906427788925404 8.262792190801973 -1 0 0
138 1 5.393043939264789 2.756034467039535 8.090369808778313 0 0 0
143 1 6.819862748838451 1.3910704991519611 6.837015461987293 0 0 0
266 1 10.753969360699147 2.731489127226545 8.126797470265 0 0 0
271 1 11.998778332098869 1.345104908227728 6.736013361990496 0 0 0
272 1 13.542438464278408 21.760191198659218 7.947690335483797 0 -1 0
394 1 16.26607270537268 2.614972895090688 7.991160792760774 0 0 0
399 1 17.733305756559066 1.2747887595331537 6.819145407930199 0 0 0
400 1 18.96183731468439 21.526984258314133 8.173665257299561 0 -1 0
48 1 2.8423185068117407 5.544552605498325 7.99414774495902 0 0 0
9 1 4.155141207787136 4.029550540127291 6.743293534286604 0 0 0
176 1 8.025741394787435 5.546551081432106 8.290660378754357 0 0 0
137 1 9.564957770670881 4.310033665989312 6.779428399504637 0 0 0
265 1 14.927841788996036 4.04770792739703 6.820089488977128 0 0 0
304 1 13.6349452775603 5.420005059897822 8.195370018103356 0 0 0
393 1 20.510183759744532 4.31773904766373 6.834187403109499 0 0 0
432 1 18.99631923341509 5.713758420357906 8.103031537117014 0 0 0
47 1 1.3653741577760203 6.911126307399153 6.689297325305212 0 0 0
170 1 5.3499560081920485 8.283168519421634 8.01405460853747 0 0 0
175 1 6.832105203696918 7.024723269789777 6.771613165899133 0 0 0
298 1 10.814770711399493 8.110203431722136 8.105159026081955 0 0 0
303 1 12.230286376316489 6.77745016348429 6.7386759152862625 0 0 0
426 1 16.337304935619855 8.333166384813227 8.050603046653709 0 0 0
431 1 17.478725539753984 6.79764838790055 6.678810936678355 0 0 0
42 1 0.029057372937979317 8.394213102515243 8.029308565387302 0 0 0
79 1 1.2638837525302578 12.440754579322993 6.746456055982572 0 0 0
80 1 2.6587143335977412 11.153998935371689 8.06367068948903 0 0 0
41 1 4.042974797200321 9.64542521333113 6.6941266210628125 0 0 0
208 1 8.101568623196762 10.789537991967471 8.04102654603289 0 0 0
169 1 9.543970624770798 9.614232025608827 6.6347408043677625 0 0 0
335 1 12.276269794019733 12.263008764173291 6.988530565837308 0 0 0
297 1 14.988015463477906 9.640948156852415 6.69004436030026 0 0 0
336 1 13.71638739142095 10.940927801580536 8.230570730277762 0 0 0
463 1 17.721242503111146 12.24988665944216 6.617562053148734 0 0 0
425 1 20.290774406886783 9.62137360892641 6.8324615058895395 0 0 0
464 1 18.899759122303116 11.0888617052864 8.151820900320875 0 0 0
74 1 21.700670564495663 13.610013463263238 8.161944553517484 -1 0 0
73 1 4.277062973663976 15.12088406825802 6.833439889970059 0 0 0
202 1 5.633183731034705 13.699172275882741 8.067210095539627 0 0 0
207 1 6.750699981537449 12.19533316071226 6.812435978254721 0 0 0
201 1 9.331426787041535 14.878449128239247 6.758345889235702 0 0 0
330 1 10.64201420958732 13.518021800026167 8.07990172400287 0 0 0
329 1 15.036204389888775 15.057033003032018 6.781182362416873 0 0 0
458 1 16.40080947410937 13.727107529075244 8.053572600615517 0 0 0
457 1 20.279375796474664 14.890800112479315 6.898617666141802 0 0 0
111 1 1.3944351188366564 17.490811567553976 6.637171689051875 0 0 0
112 1 2.7535143752671885 16.30497789433065 8.151789202323432 0 0 0
239 1 6.896934656303595 17.710934388023023 6.806816763988035 0 0 0
240 1 8.347281265254205 16.375402429972723 8.246297030914452 0 0 0
367 1 12.212595004292965 17.66925301415244 6.779356603019243 0 0 0
368 1 13.52906079636151 16.283344016462287 8.134254527071185 0 0 0
495 1 17.717834730699074 17.841455279044176 6.817087938621267 0 0 0
496 1 19.208511944088297 16.45372015446388 8.251517529446057 0 0 0
16 1 2.6547663574088447 0.017749023845961887 8.150079518372204 0 0 0
105 1 3.987708147781368 20.50147792847495 6.966183641149339 0 0 0
234 1 5.38208138441474 19.023831202276863 8.08403642832 0 0 0
144 1 8.163913182579488 0.024083405896551113 8.186636645406406 0 0 0
233 1 9.506762208261119 20.573028453343113 6.708467593315907 0 0 0
362 1 10.878478163025179 19.10661282928475 8.03341769466961 0 0 0
361 1 14.78732822952728 20.319256441863725 6.738343107320823 0 0 0
490 1 16.190495498159404 18.98423685660873 8.07795249539204 0 0 0
106 1 0.1107575626880798 19.054224227223035 8.118217922346707 0 0 0
489 1 20.45190196991359 20.35261842504994 6.8739928676310145 0 0 0
22 1 2.9010364589714386 2.8808262012982255 10.780394068443131 0 0 0
23 1 1.3736749210380421 1.4721580803714491 12.12749738830417 0 0 0
11 1 4.161156222153268 1.4559840414319922 9.39691870428766 0 0 0
150 1 8.120924470576727 2.6514943689220347 11.226727206376315 0 0 0
151 1 6.732234610977344 1.1101966511990022 12.404011146876925 0 0 0
139 1 9.444593533452894 1.3355942185148102 9.681018227410032 0 0 0
279 1 12.371681101966539 1.2511014682252828 12.278364593757184 0 0 0
267 1 14.910470895565254 1.2587207402984006 9.49352271972511 0 0 0
278 1 13.519619198280715 2.5541508159539275 10.88631649851947 0 0 0
407 1 17.548930324207184 1.4038745601866074 12.186250963749423 0 0 0
404 1 16.336792870696144 21.66445225784943 10.86400402748237 0 -1 0
20 1 21.71803392293334 0.11567247221695735 10.830311252870844 -1 0 0
395 1 20.41097838183208 1.3639186955784577 9.453386014154662 0 0 0
406 1 19.01309264787923 2.872700770434621 10.726627257024212 0 0 0
13 1 1.5209826882037845 4.204632197649283 9.475966632856542 0 0 0
180 1 5.486284204713267 5.5242118802309035 10.841666066136634 0 0 0
17 1 4.107259405606693 4.153743482609035 12.226457238228235 0 0 0
141 1 6.867921242283645 4.0356908644093865 9.74023958740404 0 0 0
145 1 9.764602857199773 3.84352792820409 12.381028708835867 0 0 0
308 1 10.9716153424493 5.309667646950762 11.014470914909808 0 0 0
269 1 12.151934734869338 3.945799635784858 9.519225312660653 0 0 0
273 1 14.983247229429935 4.07415121968552 12.005678058680525 0 0 0
397 1 17.63617278428505 4.207857296728224 9.337836008590335 0 0 0
436 1 16.256046108099458 5.497465925166361 10.81912299464941 0 0 0
52 1 21.739267843484583 5.524372458167155 10.923510850014036 -1 0 0
401 1 20.366470263298424 4.153853259396629 12.22321235842909 0 0 0
54 1 2.8056916644257113 8.38694784774344 10.826459668175684 0 0 0
55 1 1.4755640833947405 6.969212301585012 12.296589954590534 0 0 0
43 1 4.036393421584121 6.929793997053337 9.396190713389965 0 0 0
182 1 8.24873475889424 8.138723638243189 10.864085829982935 0 0 0
183 1 6.965251059107706 6.809398718233823 12.178753312618994 0 0 0
171 1 9.577699252791518 6.8174983849898725 9.649798506031491 0 0 0
311 1 12.150763832111753 6.812199169938751 12.246525072769696 0 0 0
299 1 14.963068681168654 6.8616620889680835 9.46921490649166 0 0 0
310 1 13.545481263147847 8.249868324216044 10.873060713990064 0 0 0
439 1 17.575553447796175 6.922740199786988 12.163276093960905 0 0 0
427 1 20.368198966140586 7.0123294884354195 9.512885054555827 0 0 0
438 1 18.96223240079074 8.28563119165125 10.82119507161554 0 0 0
45 1 1.3929318281904073 9.794061080754263 9.463989813113606 0 0 0
87 1 1.3421219350107652 12.067319944192933 12.381291701316185 0 0 0
75 1 4.239388906240384 12.31732765368555 9.499887376742988 0 0 0
212 1 5.509296053694068 10.95501547236146 10.981589396979363 0 0 0
49 1 4.256320325102089 9.578718638975527 12.36348879695104 0 0 0
173 1 6.89925123373532 9.563631724733826 9.547082955328907 0 0 0
215 1 6.953784223899413 12.286415682599877 12.210845914736417 0 0 0
177 1 9.482131354112028 9.544123678223421 12.207181048563564 0 0 0
203 1 9.205779691802775 12.196826270933565 9.510749514636812 0 0 0
340 1 10.788076806606787 10.906310051624304 10.813818563816564 0 0 0
343 1 12.261116819122028 12.29587448061431 12.22493432786228 0 0 0
301 1 12.13175276522736 9.627166778607679 9.509803172014049 0 0 0
331 1 14.846928678490121 12.476176674471253 9.562593466034288 0 0 0
305 1 14.890449274189956 9.410891679978004 12.386609566241843 0 0 0
429 1 17.55826269427561 9.736360594424438 9.407852107872545 0 0 0
468 1 16.09965834308915 10.925879991062756 10.931641183802643 0 0 0
471 1 17.574579730543025 12.261606096172613 12.19530118172742 0 0 0
84 1 21.733547466806698 10.853353077544845 10.977942062152485 -1 0 0
433 1 20.418120546402765 9.59461768256929 12.225385553359502 0 0 0
459 1 20.30502302491678 12.26554049949145 9.521213755858168 0 0 0
77 1 1.3241709260085186 14.914757482243942 9.564539187294258 0 0 0
86 1 2.8154835317532507 13.43369953998652 11.033232835371871 0 0 0
81 1 4.2109922095930115 15.00881638487627 12.313270809552954 0 0 0
205 1 6.805341460097354 15.079571811139152 9.590147308976862 0 0 0
214 1 8.1162420601059 13.839507345387263 10.865338935150042 0 0 0
333 1 12.118127844407384 14.900942218136201 9.432463560088225 0 0 0
209 1 9.552965191448425 15.054461534622058 12.130489505212172 0 0 0
337 1 14.889511694390736 15.313027097721742 12.157971627200627 0 0 0
342 1 13.560660128259668 13.777907025575447 10.914176369491434 0 0 0
461 1 17.689332391015366 15.12006256713037 9.622040585223022 0 0 0
470 1 18.912078718053003 13.663660745844052 10.956654640295953 0 0 0
465 1 20.30401158817449 14.859502173954695 12.337913107439023 0 0 0
119 1 1.4576261861176831 17.836717098930173 12.303594521935814 0 0 0
116 1 0.053564508089670504 16.16091409272496 11.005534075542903 0 0 0
107 1 4.212324644874468 17.589470607664584 9.46280349142457 0 0 0
244 1 5.5728888440786 16.389302569894365 10.8553856470607 0 0 0
247 1 6.9655107152133064 17.77203422504142 12.206276892998948 0 0 0
235 1 9.689748996772476 17.864635242593735 9.441045634466047 0 0 0
372 1 11.045704738031722 16.37765674705406 10.846197780397405 0 0 0
375 1 12.394241393136266 17.731633069222443 12.333609492089558 0 0 0
363 1 14.82689645719686 17.64006096899089 9.607859437218254 0 0 0
500 1 16.389982658764886 16.51274891740631 11.036178690013168 0 0 0
503 1 17.799416951387283 17.649977927887285 12.476455015822513 0 0 0
491 1 20.638447956292783 17.63619303431324 9.637753005736363 0 0 0
109 1 1.3521744918747542 20.428278455258287 9.633105467269486 0 0 0
118 1 2.8857968303975157 18.95025982121994 10.748166860158147 0 0 0
148 1 5.40237070854909 21.629516251291992 10.73225126786735 0 -1 0
113 1 4.11438364215091 20.280285361924772 12.081054012748547 0 0 0
237 1 6.815880689074464 20.36254670241461 9.44206399023152 0 0 0
246 1 8.298639030117588 19.071067049827374 10.734010319369107 0 0 0
276 1 10.94620898281718 0.08699374615734357 10.869801723241572 0 0 0
241 1 9.626582648218239 20.517678087717456 12.225643166058278 0 0 0
365 1 12.282175566279843 20.377963243031065 9.550638608525011 0 0 0
369 1 14.892834376346581 20.23283497202033 12.24387227842855 0 0 0
374 1 13.513822846077645 19.032125017722162 10.87579607024839 0 0 0
493 1 17.700776884075903 20.121539153895114 9.471548371392318 0 0 0
497 1 20.33077477880434 20.493511684333154 12.214289029836863 0 0 0
502 1 19.183064937504515 18.95135726341665 10.891339182982263 0 0 0
18 1 0.08840774183788318 2.860399121373303 13.480572823831187 0 0 0
24 1 2.8350479642933624 0.16802332239221585 13.44561282232279 0 0 0
19 1 4.136782788599669 1.506179075068524 15.084932915014203 0 0 0
146 1 5.340504539916662 2.748260074340922 13.616466780571898 0 0 0
147 1 9.525936425513331 1.3684184293465111 14.998978666479323 0 0 0
274 1 11.086223384434774 2.611614142579049 13.780744176266145 0 0 0
275 1 15.164040557479918 1.4120148450175298 14.93646212273804 0 0 0
402 1 16.25382954235921 2.9068231842498062 13.5385584677 0 0 0
403 1 20.340632834439674 1.3426874795003365 14.844799423666519 0 0 0
408 1 18.9410256961756 0.11638648437334709 13.611503188783818 0 0 0
21 1 1.339582713419266 4.237280626423035 15.164028166995042 0 0 0
56 1 2.9015374846369544 5.541797402236763 13.838448645007349 0 0 0
149 1 6.777575199941233 4.160204537772829 14.982982825833952 0 0 0
184 1 8.29324130663194 5.368099712632389 13.614716684880438 0 0 0
277 1 12.318690829424872 4.00625343547847 14.94615677262293 0 0 0
312 1 13.693198124267413 5.413792445093874 13.555184693118841 0 0 0
405 1 17.549932128472058 4.324299165209771 15.071528207811 0 0 0
440 1 18.984878968397005 5.597897159327347 13.668877906649122 0 0 0
51 1 4.196500940457219 6.945905369856253 15.206066602529699 0 0 0
178 1 5.549805533555137 8.139039317878556 13.574339481647973 0 0 0
179 1 9.55597003611509 6.816642832978571 15.127634722466063 0 0 0
306 1 10.802442000323728 8.364614249034526 13.65276974643167 0 0 0
307 1 14.902852098628205 6.816264412471985 15.04435574094578 0 0 0
434 1 16.324368828492563 8.174728504677269 13.668559696850277 0 0 0
50 1 0.07494453766318543 8.299146550126146 13.58713214213739 0 0 0
435 1 20.4730760491365 6.833149759225435 14.940636980047579 0 0 0
53 1 1.334730023652254 9.54434956436418 15.147258226338122 0 0 0
88 1 2.758809297901136 10.87627041623065 13.775977302263652 0 0 0
83 1 4.0783308137265974 12.268963709608787 15.017050840066432 0 0 0
181 1 6.913593716588974 9.462877792029905 14.974496662655984 0 0 0
216 1 8.17021449506073 10.795685003304184 13.626709349932156 0 0 0
309 1 12.16455066160214 9.513865315575659 14.95453461920575 0 0 0
211 1 9.436461997350097 12.345091878264443 14.987333341417235 0 0 0
344 1 13.57115451650361 10.946119275187197 13.807598066899821 0 0 0
339 1 14.921567932168236 12.410309034158509 15.022408135538297 0 0 0
437 1 17.653558958863442 9.611577011461778 14.978798494625892 0 0 0
472 1 19.053006305273446 11.033434450572932 13.533687607176889 0 0 0
467 1 20.26184609829188 12.24393524147394 15.221949478007987 0 0 0
85 1 1.3347188101007526 15.00199111172534 14.905092201416457 0 0 0
210 1 5.43536889092099 13.623323141169005 13.780532454727998 0 0 0
213 1 6.999323957820729 15.06718706265645 14.896021962527517 0 0 0
338 1 10.832271841244676 13.7392291829755 13.548760862427201 0 0 0
341 1 12.169644664807105 14.978659854257865 14.99917862235428 0 0 0
466 1 16.21928947339666 13.768538089493791 13.533334932713254 0 0 0
469 1 17.707271725866967 14.997397169067321 15.097470962681786 0 0 0
82 1 21.620522997025816 13.478890266609861 13.768875984826495 -1 0 0
120 1 2.69023911873238 16.2287999251579 13.525522723636918 0 0 0
115 1 4.286227210623066 17.521903607253428 14.904395401168046 0 0 0
248 1 8.451610220026696 16.57174254570356 13.477624042816561 0 0 0
243 1 9.554723820274779 17.918465536399047 15.190324843645763 0 0 0
371 1 15.085595602483291 17.925619151744137 15.11849696193435 0 0 0
376 1 13.698844397651149 16.380857195827414 13.769235979873542 0 0 0
499 1 20.444470410862095 17.606914744239575 14.91708346580989 0 0 0
504 1 18.99305403549214 16.17896365399078 13.78545727915439 0 0 0
117 1 1.3264703191772034 20.386742713548077 14.764203073443145 0 0 0
114 1 21.568141821651906 19.03815766953067 13.565433651435072 -1 0 0
242 1 5.529075570594547 18.995955702123027 13.509219051534206 0 0 0
152 1 8.256033289694008 21.705082377588383 13.755931304437063 0 -1 0
245 1 6.850993840436841 20.356147085183306 15.040159638070628 0 0 0
370 1 11.02184257011381 19.150201492555524 13.673543958830948 0 0 0
373 1 12.273859205006726 20.49422687212362 15.02904632921685 0 0 0
280 1 13.772853552877576 21.70929021967042 13.702791966156722 0 -1 0
498 1 16.36817787642715 19.079097405830737 13.703965653580397 0 0 0
501 1 17.823060862308793 20.509585753333532 15.079987627416815 0 0 0
30 1 2.660904856662211 2.7086930202621122 16.492048202404426 0 0 0
31 1 1.2843840633484942 1.2292571555976985 17.538429302188643 0 0 0
28 1 0.0028754823711017318 21.766246505950086 16.1225178359269 0 -1 0
156 1 5.57316814887472 0.012187155001743832 16.156301911236202 0 0 0
158 1 8.069850782055099 2.6652720249089508 16.36329108375447 0 0 0
159 1 6.689381849367827 1.4097633446057227 17.802562355116653 0 0 0
287 1 12.456808847569471 1.3019972148671886 17.651170004275254 0 0 0
286 1 13.571636740984452 2.692060872477401 16.3076291489908 0 0 0
415 1 17.66506908502936 1.3859985394592835 17.811150027282235 0 0 0
412 1 16.353031740859205 0.04396122136257574 16.349367128532307 0 0 0
414 1 18.957699124316246 2.7878444349152525 16.268489950715487 0 0 0
25 1 3.9692969224322874 3.871143212684864 17.955524618237003 0 0 0
188 1 5.481500200859734 5.344809000231674 16.574017038840868 0 0 0
153 1 9.552623718848938 4.021610321355721 17.60814798978591 0 0 0
316 1 10.893355067839808 5.3370284063196225 16.1727598116328 0 0 0
281 1 14.87802962743566 4.088566121460986 17.766500907435027 0 0 0
444 1 16.3002160178996 5.642552927084999 16.540854092262816 0 0 0
60 1 0.05745307829901947 5.4557639381709135 16.486996189424016 0 0 0
409 1 20.401473624185748 4.02402368863258 17.776068571832145 0 0 0
62 1 2.7767375188380865 8.243255229951886 16.37655434997202 0 0 0
63 1 1.4464391200457303 6.884379393894372 17.77249645743761 0 0 0
190 1 8.210683661852038 8.227302854125702 16.499452879622094 0 0 0
191 1 6.890263788544291 6.7130036547339 17.865184683893858 0 0 0
319 1 12.071938588439954 6.701018756503878 17.722932449998023 0 0 0
318 1 13.435066435160046 8.052743601134688 16.259221355070057 0 0 0
447 1 17.78032435262611 6.939193267488068 17.855086033366657 0 0 0
446 1 19.114829740815566 8.129463859601247 16.380886463565545 0 0 0
95 1 1.4462336710419617 12.285277440126956 17.737742534417023 0 0 0
57 1 4.055684980567369 9.318234085800716 17.792557786348713 0 0 0
220 1 5.416780849543305 10.739745561141156 16.28536022204657 0 0 0
223 1 6.774378896098625 12.235885429579522 17.586672069415865 0 0 0
185 1 9.631516377447456 9.700997927252429 17.706645476085043 0 0 0
348 1 10.958201788807878 11.069187201991502 16.17826297121211 0 0 0
351 1 12.257085841060201 12.274138726691747 17.788765082230853 0 0 0
313 1 14.95151174043593 9.489525898013385 17.705943978001724 0 0 0
476 1 16.091429749833495 10.918520833065896 16.407803378218023 0 0 0
479 1 17.451089796661343 12.15518184128799 17.813451473512792 0 0 0
92 1 0.03344947602532855 11.028976639593163 16.30823082923952 0 0 0
441 1 20.466601708785184 9.715535897572677 17.715085946049104 0 0 0
94 1 2.77814834123134 13.782196538283044 16.36403022816668 0 0 0
89 1 4.2667314338208735 15.242732020041041 17.469500874068356 0 0 0
222 1 8.267117418107546 13.710914186831658 16.417210081690058 0 0 0
217 1 9.535518492401053 15.051189244423602 17.811283405068675 0 0 0
345 1 14.857159006119046 15.088128843382863 17.655368813495244 0 0 0
350 1 13.487368657821724 13.701414725478502 16.4211011670957 0 0 0
473 1 20.31961501512162 15.017255874140883 17.762773647534054 0 0 0
478 1 18.87175586942333 13.572958233753184 16.6255900043406 0 0 0
127 1 1.4261764083374702 17.765024769257018 17.572859035784806 0 0 0
252 1 5.625029067510769 16.54055575102663 16.274691921539922 0 0 0
255 1 6.75728998369773 17.771712532094924 17.760588936226313 0 0 0
380 1 10.942313187387356 16.37714829168657 16.385788575478408 0 0 0
383 1 12.331115341965464 17.69929716036197 17.80711275395202 0 0 0
508 1 16.536292225742816 16.3816114153037 16.41189323018507 0 0 0
511 1 17.830888768351993 17.68437784123307 17.701069795695897 0 0 0
124 1 21.728492705617118 16.320816639627733 16.336591531305544 -1 0 0
126 1 2.753275570411078 18.95432294908447 16.125105449330317 0 0 0
32 1 2.3884336987571984 21.24122599117611 18.529969323089638 0 -1 0
121 1 4.348165830168354 20.197487523327897 17.41649183168837 0 0 0
254 1 8.165873442994721 19.114338292814768 16.597381309502094 0 0 0
284 1 10.934448347485374 0.03941812305322191 16.460530264139383 0 0 0
249 1 9.550523693348923 20.47975586026889 17.77493722056265 0 0 0
377 1 15.025471371228956 20.396434279668235 17.743318008184318 0 0 0