LAMMPS data file via write_data, version 10 Sep 2025, timestep = 10000000, units = metal

513 atoms
1 atom types

0 21.754625 xlo xhi
0 21.754625 ylo yhi
0 21.754625 zlo zhi

Masses

1 28.085

Atoms # atomic

7 1 1.8459679841556087 1.6993307576299517 1.861414440956683 0 0 0
3 1 5.354983648559761 2.4640111225023738 2.9809462236797586 0 0 0
1 1 3.5334042262320295 3.3439397823787504 1.8787434534972147 0 0 0
135 1 6.717869861913022 1.3132162151289615 1.4110806946957168 0 0 0
134 1 8.080978960952766 2.8286334030847584 0.11524514620113747 0 0 0
258 1 10.719607929999237 2.838286142191411 2.867528670494438 0 0 0
263 1 12.059725001911927 1.5305516086971531 1.4319032083017045 0 0 0
260 1 10.899968274854958 21.708852247060754 0.03440631796509308 0 -1 0
264 1 13.56193530156791 0.201501409157426 2.6713781379603696 0 0 0
386 1 16.270614261178064 2.8087670133355576 2.8642987594953833 0 0 0
391 1 17.716793830754746 1.458824403857085 1.4764348212457825 0 0 0
388 1 16.29321505856736 0.17240455951526457 0.07879580366475025 0 0 0
2 1 21.72385992546719 2.8684621730143967 2.8657372755501322 -1 0 0
390 1 19.04229724438592 2.6611508044335745 21.72920508925447 0 0 -1
40 1 2.467513367710088 5.440650399317671 2.832216840245607 0 0 0
168 1 8.209535756039337 5.5597952627815985 2.6211698461522714 0 0 0
129 1 9.538896867035797 4.145961011109602 1.358139738765793 0 0 0
257 1 15.00828537014744 4.196065396456915 1.4715993604840931 0 0 0
296 1 13.567477018721524 5.59689621514509 2.731203193025814 0 0 0
36 1 21.677268206281056 5.376496295427888 0.06658065182252315 -1 0 0
385 1 20.373137699756356 4.0611367721682505 1.3675816421298201 0 0 0
424 1 19.020992632491424 5.571765634361378 2.7266149794421612 0 0 0
39 1 1.2029549124744447 6.940636845548377 1.2610855775660965 0 0 0
34 1 21.565269351176603 8.29785260834618 2.723653610919232 -1 0 0
162 1 5.448219916778783 8.17409313073959 2.8883930020162687 0 0 0
167 1 6.713989409677932 6.729378134010913 1.3893764971259528 0 0 0
290 1 10.975471653243247 8.14855991923888 2.6662592019117874 0 0 0
295 1 12.163232958607624 6.761053674548829 1.3102244251517006 0 0 0
418 1 16.477589292130865 8.210751054132048 2.58900446830718 0 0 0
423 1 17.801782495767263 6.818071370572665 1.252294509885167 0 0 0
72 1 2.728166458972783 10.81733113807511 2.693018272419135 0 0 0
71 1 1.5219029142579668 12.222306991467327 1.2308670000759308 0 0 0
68 1 0.16631248890002936 10.810911656854488 21.702592425820747 0 0 -1
33 1 4.172110428308968 9.528048017208315 1.5331741949598978 0 0 0
200 1 8.31062545493836 10.842235044713368 2.7578608508560714 0 0 0
199 1 6.8225923346477035 12.23220259091638 1.5126951727474784 0 0 0
161 1 9.581430401348385 9.379292570821693 1.3457241535726006 0 0 0
327 1 12.069253786686712 12.251259707199875 1.258628485185671 0 0 0
289 1 14.886152167703907 9.569765549160842 1.337376800719644 0 0 0
328 1 13.523509503270557 11.018324136765822 2.58717829699914 0 0 0
455 1 17.767929836810023 12.244359463356687 1.4959815810594561 0 0 0
417 1 20.305461264467972 9.657765405177793 1.2573706426114364 0 0 0
456 1 19.19451767291386 10.88879776961111 2.836827873049573 0 0 0
70 1 2.849431372218987 13.678860062736884 21.653058282258474 0 0 -1
66 1 21.722199455428235 13.635175578033758 2.7153353357831826 -1 0 0
65 1 4.07527152132795 14.955370519535183 1.6425106585990303 0 0 0
194 1 5.424165543449138 13.506173389616075 2.9125529109926016 0 0 0
198 1 8.150548446812321 13.597617975648827 0.12648272500479063 0 0 0
193 1 9.511427129344614 14.89800901359656 1.385706340394679 0 0 0
322 1 10.905074038627182 13.556115285002639 2.618538896506451 0 0 0
321 1 15.002945211934588 14.751275402699367 1.2671627442834845 0 0 0
326 1 13.66458291607903 13.481330215085531 21.66746718384016 0 0 -1
450 1 16.267471264404815 13.44976441339913 2.6697832613937242 0 0 0
449 1 20.45110848466058 14.971351642387514 1.315062891508943 0 0 0
454 1 19.059019814248458 13.593208188043755 0.02511796082895046 0 0 0
103 1 1.4706647778433242 17.607039224672718 1.5620148586000078 0 0 0
104 1 2.7744907459412533 16.244383463337925 2.95729260838527 0 0 0
100 1 0.08331623615741533 16.342008583643775 0.0478856888205641 0 0 0
228 1 5.321940819248638 16.276352485382876 0.23906795968460118 0 0 0
231 1 6.923190907212991 17.552629230028955 1.4110090816785925 0 0 0
232 1 8.197235594338633 16.15380964692764 2.8551892158751557 0 0 0
359 1 12.343441510184114 17.616271501063306 1.190925976103858 0 0 0
356 1 10.922109310066507 16.25174566912868 21.704756893147874 0 0 -1
360 1 13.63119807955146 16.153826423785066 2.574387802337131 0 0 0
487 1 17.73714650128127 17.825635185713644 1.522616255457498 0 0 0
484 1 16.29767268552033 16.417547415867038 0.23397401653176308 0 0 0
8 1 2.702572629741921 21.597330454501254 2.980911013538244 0 -1 0
102 1 2.650669452972021 19.159724742688223 0.17598176949576635 0 0 0
97 1 4.096029631515164 20.339374093937778 1.5440614143239546 0 0 0
226 1 5.5600062968788935 18.871893368826893 2.6993122169931847 0 0 0
136 1 8.096568862253013 21.69350482985946 2.6757837672829554 0 -1 0
230 1 8.130467329613989 18.99855272514435 21.625100824756007 0 0 -1
225 1 9.291077430350311 20.430196486810217 1.322087389569221 0 0 0
354 1 10.920032169574188 18.939753934640045 2.4807557647247487 0 0 0
353 1 14.917484138639804 20.543937118568362 1.3534497592275325 0 0 0
358 1 13.635853199202721 19.081965158655567 21.683738109209415 0 0 -1
482 1 16.25262611076452 19.26253753705886 2.6651713035511193 0 0 0
392 1 19.134741054622637 0.2717479074181064 2.7156033115696583 0 0 0
98 1 0.040555393512160975 18.862978143377518 2.7935048609825097 0 0 0
481 1 20.38319573391333 20.426368238632698 1.6891326117372374 0 0 0
486 1 19.092134156629356 19.083709677999302 0.16902129288097711 0 0 0
14 1 2.7587665871274383 2.8432976912831034 5.479048287815791 0 0 0
12 1 21.72624701789079 0.07803564248315882 5.51837831695942 -1 0 0
513 1 4.095500876364227 1.1253943047966335 4.404074178824223 0 0 0
142 1 8.229806389032287 2.89305846923097 5.42801399127355 0 0 0
131 1 9.501795799638067 1.3015517321782573 4.119488519143505 0 0 0
268 1 10.964385425668706 0.017011026718996902 5.404246839324492 0 0 0
259 1 14.788226569573245 1.4185145787938784 4.165341917085786 0 0 0
270 1 13.418823160859242 2.870407153966802 5.517934295001118 0 0 0
387 1 20.404632321672057 1.495949576265996 4.301646557957779 0 0 0
398 1 18.963260530438518 2.729185420893124 5.500925025682487 0 0 0
5 1 1.3797468278864549 4.118355696733109 4.24519373094332 0 0 0
172 1 5.398991647282421 5.234252437143287 5.307136207585066 0 0 0
133 1 6.828938358181348 4.050743734115022 3.9172515849611798 0 0 0
300 1 10.834800957247598 5.6526373538202055 5.383921050655261 0 0 0
261 1 12.265624747069127 4.228815083921144 4.070094194295122 0 0 0
389 1 17.79015034415562 4.134491944339424 4.130674230648363 0 0 0
428 1 16.3403098155601 5.2851916866815385 5.487347586005444 0 0 0
44 1 21.6961113332294 5.53708961300145 5.448830211987722 -1 0 0
46 1 2.9359421647094597 8.137029311286856 5.5223386792885405 0 0 0
35 1 4.0692143632094595 6.712797347979547 4.093234559356434 0 0 0
174 1 8.006365883556851 8.121911719309985 5.447738241185026 0 0 0
163 1 9.45520760470453 7.015945688996489 3.9001079356921013 0 0 0
291 1 15.068379278235266 6.848770264039547 4.04251253558924 0 0 0
302 1 13.607128632219954 8.335080072139496 5.390034611945847 0 0 0
419 1 20.22588281626534 6.968944160031134 4.165994857379514 0 0 0
430 1 18.93490492994996 8.231396056868105 5.557897171944277 0 0 0
37 1 1.3380189142332797 9.54759625228257 4.0731205054675295 0 0 0
76 1 0.10118280043256371 10.966567435079858 5.631333639689438 0 0 0
67 1 3.9969312083851034 12.18266098476814 4.107075527025613 0 0 0
204 1 5.397084646736036 10.934334157183695 5.492520973295613 0 0 0
165 1 6.9154183971034335 9.687379029884804 4.098816928780322 0 0 0
332 1 10.812555782823647 10.908696574499963 5.301341302941371 0 0 0
293 1 12.289424424359842 9.593014372879022 3.8668240678240853 0 0 0
195 1 9.505997734933084 12.342763383002334 4.174134845424955 0 0 0
323 1 14.862539957544735 12.353681651435988 3.979279303682713 0 0 0
421 1 17.697111481947104 9.501346988083146 4.005539886127366 0 0 0
460 1 16.232132899378136 10.8902322554796 5.470049149978284 0 0 0
451 1 20.577404927516824 12.243848303266121 4.142321140036685 0 0 0
69 1 1.4033368349674442 14.863229217366955 4.230108484878191 0 0 0
78 1 2.7536938385329206 13.502619074293642 5.5667699121625365 0 0 0
197 1 6.794061677842046 14.94147179934218 4.217301381065483 0 0 0
206 1 8.070498489559316 13.589265891752817 5.654138057214473 0 0 0
325 1 12.315149389816474 15.030682572418788 3.875626256277951 0 0 0
334 1 13.568201832907885 13.77575961364854 5.244547813165964 0 0 0
453 1 17.764111826468184 14.94794813314861 4.0086406723558285 0 0 0
462 1 19.130238679015992 13.534494998156568 5.538510591245424 0 0 0
108 1 0.048968257815537944 16.265884933506715 5.4718264772658936 0 0 0
99 1 4.1681725293682135 17.74072937838269 4.125130307272922 0 0 0
236 1 5.496222194696138 16.318079667083047 5.520084784089685 0 0 0
227 1 9.644842211630989 17.672433115845024 3.9944832241885138 0 0 0
364 1 11.005438373886665 16.31698542256903 5.293816393398951 0 0 0
355 1 14.979947073284427 17.735255649215492 4.02515988181081 0 0 0
492 1 16.44052537904254 16.36823250401478 5.493627774427809 0 0 0
488 1 19.06675433981149 16.308450763676905 2.6581510418932046 0 0 0
483 1 20.317338404419296 17.664684219552935 4.181926503118892 0 0 0
101 1 1.228213038314761 20.237273266156976 4.246605235104903 0 0 0
110 1 2.8252145604799956 19.060847579462063 5.57309995596782 0 0 0
140 1 5.6395208313431375 0.004664503328754677 5.447179913192828 0 0 0
229 1 6.826353905503794 20.275649382797695 4.072277892589597 0 0 0
238 1 8.253918754459484 18.93246172856396 5.30181310784868 0 0 0
357 1 12.210386985435074 20.280920603707614 3.8990303041980967 0 0 0
366 1 13.488250536140391 18.92051743208389 5.296576168557521 0 0 0
396 1 16.23273179095086 0.01698172722807101 5.367624934171581 0 0 0
485 1 17.727578869503084 20.639666147591324 3.9424003395009333 0 0 0
494 1 18.949204559088752 19.227801541626672 5.464467774569864 0 0 0
15 1 1.2538862404486595 1.569594519436585 6.758951575270931 0 0 0
10 1 21.580960788302175 2.897611630744764 8.026025262529888 -1 0 0
138 1 5.4727249880941375 2.761531685875751 8.143318372423689 0 0 0
143 1 6.9733082753350315 1.571333386238142 6.753958603654616 0 0 0
144 1 8.185651301320418 0.11185340275224273 7.960722901322548 0 0 0
266 1 11.002601444263838 2.7019533926306147 8.163985378503643 0 0 0
271 1 12.29132928550833 1.3471019942191749 6.796034732890951 0 0 0
272 1 13.559466843296235 0.0318899522654057 8.191354176534588 0 0 0
394 1 16.208130878466836 2.8626682406024573 8.088851803992606 0 0 0
399 1 17.51169463213109 1.4186689033343478 6.838027100952205 0 0 0
48 1 2.7842167575816035 5.5743680083269025 8.266660926005649 0 0 0
9 1 4.11440552613284 4.121390135728267 6.882706026422903 0 0 0
176 1 8.265679028712935 5.3862217846789004 8.09769127812063 0 0 0
137 1 9.623959763390422 4.130096021673486 6.785914644019719 0 0 0
265 1 14.76755650709261 4.24219241783791 6.811750843152385 0 0 0
304 1 13.531682774662773 5.66805737711 8.11749582437795 0 0 0
393 1 20.233372803280897 4.244037305965131 6.838881740868637 0 0 0
432 1 18.90102125528834 5.480479280021267 8.201772586756558 0 0 0
47 1 1.329727158988829 6.810403622208493 6.879390435476426 0 0 0
170 1 5.532955941667441 8.158778990111909 8.165994753594632 0 0 0
175 1 6.766489097355472 6.637496958363598 6.624899279253819 0 0 0
298 1 10.773026045647606 8.120992714104814 7.908327297058513 0 0 0
303 1 12.130135405188508 7.0854398171255335 6.719555957559357 0 0 0
297 1 14.948027378956183 9.634274174641307 6.8083210667966885 0 0 0
299 1 15.023533519976517 6.6442519031841965 9.608581906526476 0 0 0
426 1 16.16251335487519 8.150963064403939 8.215566955542466 0 0 0
431 1 17.625379836679937 6.783817452121227 6.6997926338057034 0 0 0
42 1 0.053347667461203715 8.33507862042058 8.179417568646123 0 0 0
80 1 2.958682532019009 10.95326382508002 8.259014987357602 0 0 0
79 1 1.5254504442575691 12.08192491791905 7.0487950435986955 0 0 0
41 1 4.156170286605389 9.48854948467037 6.7851755996369 0 0 0
208 1 8.258911098794078 10.942862985353647 8.170994208161325 0 0 0
207 1 6.657293094589648 12.250333459944018 6.846753382638533 0 0 0
169 1 9.541044090170715 9.601465848626212 6.76758820180151 0 0 0
335 1 12.257521207329642 12.319118177236838 6.599764575092016 0 0 0
336 1 13.568389737560887 10.859910949760494 8.24622222484954 0 0 0
463 1 17.59788961812172 12.133852101160548 6.720572775822241 0 0 0
425 1 20.415300980350484 9.650764833827422 6.79294263201063 0 0 0
464 1 18.874953733536994 10.728689550896762 8.095175159524532 0 0 0
74 1 0.02627182160429017 13.492426304054236 8.114875270622619 0 0 0
73 1 3.9285859753189194 14.991081608066606 6.813722706808584 0 0 0
202 1 5.238717835286544 13.797693312805565 8.149618385299172 0 0 0
201 1 9.646026473270284 15.003190752072284 6.835136962919505 0 0 0
330 1 11.07982510734775 13.5976980227947 8.068020234715487 0 0 0
329 1 14.907824861718026 14.9970103803548 6.7185297755880615 0 0 0
458 1 16.33555265983587 13.49071350166968 8.083286408271595 0 0 0
457 1 20.444377187117045 14.908751396643506 6.820912375716382 0 0 0
111 1 1.3201048314089838 17.689458540087156 6.739286407323272 0 0 0
112 1 2.547075472020745 16.346883532349462 8.043904125982166 0 0 0
239 1 6.805586853723287 17.61984334536991 6.701575055653893 0 0 0
240 1 8.221697379418973 16.509846840829578 8.11544440535579 0 0 0
367 1 12.29290431772268 17.633075249935164 6.892124897012755 0 0 0
368 1 13.73020298921669 16.293249567813714 8.063232678467113 0 0 0
495 1 17.70916437637929 17.76384561207118 6.884401153911505 0 0 0
496 1 19.030515952807313 16.13714850007482 8.139005883206343 0 0 0
16 1 2.5058925166000185 0.24893314830522328 8.262995636751839 0 0 0
106 1 21.65810074491763 18.75148739430725 8.20989190165953 -1 0 0
105 1 4.013480624169948 20.676360063559645 6.708292814281891 0 0 0
234 1 5.546808716236342 19.168547522640836 8.000554510545586 0 0 0
233 1 9.627515645917136 20.32517644302151 6.79999081893226 0 0 0
362 1 10.941190159770201 18.973857319285962 8.237865365658836 0 0 0
361 1 14.897597428591068 20.348573757522647 6.656425704495148 0 0 0
490 1 16.12450106018749 19.01131361090492 8.141010813451874 0 0 0
400 1 19.00357893577384 21.654968388455565 8.12943836807115 0 -1 0
489 1 20.489965994311323 20.356580673634 6.793268488591184 0 0 0
22 1 2.6165190912768623 2.8156219672224294 10.811536105540787 0 0 0
23 1 1.3601541651081266 1.4772925377390012 12.293232156582043 0 0 0
11 1 4.198708814167007 1.4975594258471472 9.526001025253743 0 0 0
148 1 5.392827283034223 21.74660065799178 10.848049042322115 0 -1 0
150 1 8.246958368481975 2.7322190378934827 10.805634571077743 0 0 0
151 1 6.915386090485244 1.3693862053213703 12.158559784772757 0 0 0
139 1 9.650211546248052 1.2855441854700722 9.52382609638294 0 0 0
276 1 10.882155667843294 21.656666533204376 10.91249756192488 0 -1 0
267 1 14.953020811338035 1.380625415642017 9.345731113824462 0 0 0
278 1 13.615776285823216 2.7640153109797074 10.790157625691437 0 0 0
407 1 17.702718077940215 1.3327074172933349 12.073351729231453 0 0 0
404 1 16.36682661037649 0.06269644791152519 10.770088867664848 0 0 0
395 1 20.303434366499552 1.4336400557460527 9.41713016825631 0 0 0
406 1 18.981868610974878 2.7091766921592653 10.860615658726287 0 0 0
20 1 0.022914131571216245 0.10543468074957474 10.969210058797287 0 0 0
13 1 1.1608620919543167 4.109596651517261 9.567836340561092 0 0 0
52 1 21.567089359959727 5.478119561142666 10.861652575778034 -1 0 0
180 1 5.487499837184208 5.486480694822764 11.0018692372983 0 0 0
17 1 3.9882430148883663 4.16434257836851 12.269207203966769 0 0 0
141 1 6.783568906530241 4.138098147224011 9.655143410996395 0 0 0
145 1 9.62682303536377 4.1640715404692505 12.229745325875081 0 0 0
308 1 10.949775174824866 5.468175623638273 10.73269707154652 0 0 0
269 1 12.368399251546833 4.052042757836213 9.451844083317203 0 0 0
273 1 15.074544918589767 4.036311920848007 12.225892748948276 0 0 0
397 1 17.614158362374646 4.0634284604455 9.53144544497928 0 0 0
436 1 16.473818238352823 5.339872480367262 11.070534160518779 0 0 0
401 1 20.201909569369032 4.076093089309985 12.25153026544312 0 0 0
54 1 2.7883409880693795 8.208466578979362 10.897603856475211 0 0 0
55 1 1.3614545254049695 6.855694501577715 12.076608712663917 0 0 0
43 1 4.2798739145162426 6.925678914811593 9.706701199979227 0 0 0
182 1 8.230651393060102 8.158955992779239 10.829931951050716 0 0 0
183 1 7.004168406656264 6.860825193513205 12.177762503773591 0 0 0
171 1 9.53687864698379 6.783637629669249 9.300190056214173 0 0 0
311 1 12.36602843871625 6.592934698946294 12.106668811979207 0 0 0
310 1 13.656512938196064 8.039028960260948 10.849483863450697 0 0 0
439 1 17.593533908710057 6.903073169304777 12.455578569718844 0 0 0
427 1 20.184430336337048 6.928919870756675 9.429534908345472 0 0 0
438 1 18.951075289857023 8.268502358332386 11.070752567405977 0 0 0
45 1 1.3977903985820115 9.628303017793897 9.512053962788158 0 0 0
87 1 1.3809705630192568 12.260237927584287 12.248639310160367 0 0 0
212 1 5.511436999560665 10.890007048188851 10.879153428763221 0 0 0
75 1 4.005322391318634 12.341101736215366 9.656704038126144 0 0 0
49 1 4.117998394139915 9.518821410702541 12.340917295872861 0 0 0
173 1 6.918816005967051 9.590090054243483 9.524583055447405 0 0 0
215 1 7.051157919489189 12.156894989069054 12.15590124628394 0 0 0
177 1 9.635401503018617 9.388606303260595 12.116947327328482 0 0 0
203 1 9.637342805595226 12.451626997003268 9.51695621868205 0 0 0
301 1 12.089222415171452 9.35512479577595 9.490125632973879 0 0 0
340 1 10.890031277445134 10.796292488381647 10.76347499686373 0 0 0
343 1 12.269439892159824 12.135938879807345 12.119527882660792 0 0 0
305 1 14.838445008860997 9.389736152927755 12.297746731762436 0 0 0
331 1 15.102419712409269 12.211260969880014 9.65912569831455 0 0 0
429 1 17.60041097315703 9.490084892575382 9.627308124213162 0 0 0
468 1 16.364133167434378 10.734470347525761 11.118521030667145 0 0 0
471 1 17.905972753370797 12.216969631178126 12.239865441952853 0 0 0
84 1 0.01987229005279545 10.945210953487154 10.85637453519408 0 0 0
433 1 20.491973422073222 9.49383508747302 12.360848854422493 0 0 0
459 1 20.402436586226504 12.055200735298111 9.401041914905775 0 0 0
77 1 1.1905548283103755 15.005514446510752 9.400908914482946 0 0 0
86 1 2.4894309818055222 13.72049404690008 10.956573573851532 0 0 0
81 1 4.076786098758095 14.883029440117674 12.354752426334263 0 0 0
205 1 6.7242479006328555 15.031858274787739 9.546786013361674 0 0 0
214 1 8.270736854039859 13.792353215446388 10.785964690573971 0 0 0
333 1 12.365251542485089 15.035075893895264 9.386982758665361 0 0 0
209 1 9.589460595756364 15.09364444459323 12.1239446884879 0 0 0
342 1 13.6294829311963 13.514356604772349 10.877067932015853 0 0 0
337 1 15.02707584940193 14.872560184614198 12.09008833202007 0 0 0
461 1 17.701456199424747 14.853783459416379 9.449428173317912 0 0 0
470 1 19.077237913442897 13.41401623788074 10.751900824534376 0 0 0
465 1 20.31129351875881 14.751628929108103 12.17609782840896 0 0 0
119 1 1.3546828170893925 17.57927856074271 12.30407299644646 0 0 0
116 1 21.58908427896137 16.240810818790976 10.859800336127556 -1 0 0
107 1 4.195743831209028 17.73371100195137 9.45394976469068 0 0 0
244 1 5.43775876271694 16.426421669098662 10.94655089360728 0 0 0
247 1 6.878121132197228 17.73688271965211 12.328976450378622 0 0 0
235 1 9.46398426131186 17.74332573395891 9.625049371416914 0 0 0
372 1 10.93070142626975 16.347882529709864 10.82792961428527 0 0 0
375 1 12.40498866655304 17.729853818911927 12.267846188978758 0 0 0
363 1 14.953924033301089 17.637795364120233 9.68201496271348 0 0 0
500 1 16.218246299364644 16.348903692072998 10.719460710335778 0 0 0
503 1 17.54930043086594 17.703277961386732 12.377905567694516 0 0 0
491 1 20.174904041717262 17.54874095467768 9.566541599031169 0 0 0
109 1 1.2581497222899323 20.368916619073037 9.594865148220753 0 0 0
118 1 2.6992730602314583 19.02196563397437 10.901344085685578 0 0 0
113 1 3.9647712133879875 20.55187558328979 12.259857707347152 0 0 0
237 1 6.894734593443296 20.5418213013651 9.372866976507414 0 0 0
246 1 8.075949847418874 19.17540321160591 10.917754114783147 0 0 0
365 1 12.258267510326927 20.335833241482018 9.480551426145322 0 0 0
241 1 9.451951411873033 20.288743136063424 12.28107477117567 0 0 0
374 1 13.6982448715473 19.067495316069436 10.935048149076373 0 0 0
369 1 15.131267362618992 20.363066897510926 12.19112267478694 0 0 0
493 1 17.65548402073577 20.2500232046359 9.498798799640674 0 0 0
502 1 18.980756526225296 18.99288999405946 10.963064733936099 0 0 0
497 1 20.40464106411706 20.308687295573378 12.253003385964165 0 0 0
18 1 0.005615813620369892 2.82810324700469 13.588287723495633 0 0 0
24 1 2.5771830029046807 0.021203069220075112 13.605342085224825 0 0 0
19 1 4.1929122996185395 1.1932806444788693 14.902594813609438 0 0 0
146 1 5.2500760447232535 2.6573549178949833 13.540240665536489 0 0 0
152 1 8.236028057950243 0.026104531177264398 13.624441973299945 0 0 0
279 1 12.30095344764793 1.3420006030268954 12.226520237560573 0 0 0
147 1 9.51660677911482 1.4715462085260933 14.895679159270445 0 0 0
274 1 10.868006562325439 2.6721523832012206 13.588111518989564 0 0 0
275 1 14.947853572778799 1.4776564122018727 14.820738079383242 0 0 0
280 1 13.597236889955022 21.6056644518635 13.501821062924876 0 -1 0
402 1 16.42487956469576 2.7331471231601165 13.66269045875442 0 0 0
403 1 20.26113207111479 1.4747025133036717 14.8525508151048 0 0 0
408 1 18.952198720149635 21.570128530625613 13.53184972966228 0 -1 0
21 1 1.4381305899913672 4.076836867694885 15.309667524370392 0 0 0
56 1 2.6051501923182308 5.40812407393473 13.648725366903506 0 0 0
149 1 6.613860653893427 4.114682219724055 14.931979479071316 0 0 0
184 1 8.035086173223664 5.4938199330326665 13.542966455757186 0 0 0
277 1 12.274489500621012 4.035753000564964 15.084882840726209 0 0 0
312 1 13.589091988763709 5.202103012244164 13.594866866332035 0 0 0
405 1 17.639486075098645 4.267034624527401 14.940348768855893 0 0 0
440 1 18.973439927558925 5.4985190562749855 13.629592076787043 0 0 0
50 1 0.00848210259942661 8.067496675043499 13.632862175485265 0 0 0
51 1 4.019089563608516 6.83428317192995 14.93794614147069 0 0 0
178 1 5.452505249187725 8.098139500569518 13.460943481272972 0 0 0
179 1 9.606507047390513 6.639271686742972 14.988436265461596 0 0 0
306 1 10.911469611888478 7.915085402722126 13.479268688673509 0 0 0
307 1 14.964845921489275 6.8126348055322135 14.932596698705792 0 0 0
434 1 16.223209673718667 8.313202355801838 13.793350872877172 0 0 0
435 1 20.61768402262356 6.703211922461057 14.988259495213699 0 0 0
53 1 1.2506868103408373 9.472679180546292 14.915340947634169 0 0 0
88 1 2.73672709817826 10.919087475926727 13.636617028367889 0 0 0
83 1 4.050806314702497 12.328780117578681 14.935553767758604 0 0 0
181 1 6.7125431762918355 9.515540109263094 14.867576661661214 0 0 0
216 1 8.249559230718582 10.642671111082953 13.611116721289962 0 0 0
211 1 9.510796738165503 12.159400719736663 14.88476689364756 0 0 0
309 1 12.139470741933723 9.399781446039043 14.884576618257242 0 0 0
344 1 13.485487444740116 10.777467201625948 13.558212820153361 0 0 0
437 1 17.668628140779994 9.66506820678927 15.092045177738399 0 0 0
472 1 19.198940077758177 10.795559218898767 13.743715910168286 0 0 0
467 1 20.415853171453897 12.282854576009967 14.892277019811338 0 0 0
85 1 1.223653361120937 14.905211173478266 15.054290505632833 0 0 0
82 1 21.739118320701966 13.685973089943737 13.519378928875561 -1 0 0
210 1 5.5723367300097015 13.415027846489735 13.588003149894588 0 0 0
213 1 6.870298793727219 14.811832625843776 14.965812619786414 0 0 0
338 1 10.83088305134855 13.542439383129352 13.50768121240613 0 0 0
341 1 12.13465504216609 14.971733032706199 14.972118351256938 0 0 0
339 1 14.828592493377782 12.278582518636886 15.050257080579915 0 0 0
466 1 16.183370190261705 13.496442891604037 13.596900085519072 0 0 0
469 1 17.46710881877909 14.921973775020883 14.851825836451928 0 0 0
120 1 2.5803616342213207 16.347233456959145 13.67174993675595 0 0 0
115 1 4.080898416789968 17.774618808109008 14.900836010057537 0 0 0
248 1 8.21559297101673 16.299424317808526 13.677350503695669 0 0 0
243 1 9.476847414298135 17.612707785243273 15.014802720225322 0 0 0
371 1 15.027954831393746 17.830718498872773 15.00635549119705 0 0 0
376 1 13.753557339178089 16.332475895185286 13.605451347541777 0 0 0
499 1 20.38069432216187 17.59164006565314 14.943752402719033 0 0 0
504 1 19.03816640484608 16.16814688195088 13.597258964768923 0 0 0
117 1 1.13559597017253 20.218265895044404 15.131800114814853 0 0 0
242 1 5.260238359019451 19.185002775459417 13.569530862310542 0 0 0
245 1 6.826251850519467 20.446250016940613 15.020732894349786 0 0 0
370 1 10.913587496302162 18.951260952732966 13.688114783786597 0 0 0
373 1 12.336022613820978 20.28352299528758 14.881905321260945 0 0 0
498 1 16.309921787513918 19.08578735071669 13.740483865870216 0 0 0
501 1 17.633634065353924 20.41975048705396 14.97554908285492 0 0 0
114 1 0.022542736699602786 19.008243255982396 13.629638392145969 0 0 0
30 1 2.8465283075680343 2.560266546125338 16.377869577845754 0 0 0
31 1 1.4288989044903766 1.3038367312377555 17.62022236187729 0 0 0
158 1 8.259582462105733 2.883743191898659 16.0901907923318 0 0 0
159 1 6.9773343298391906 1.367365965564939 17.415138517045488 0 0 0
287 1 12.281871964515496 1.370715521188375 17.665966777516957 0 0 0
286 1 13.647083796904473 2.7346248608679296 16.345848084589484 0 0 0
415 1 17.545705965916646 1.3713906273697372 17.7156119050423 0 0 0
412 1 16.345492069059915 0.10632695463352348 16.23146968357265 0 0 0
414 1 18.94464198112444 2.75538635059826 16.289985944477493 0 0 0
28 1 21.61037429181747 0.05542800168177716 16.30655447639614 -1 0 0
25 1 4.044985399355955 4.051826139287683 17.643849540803924 0 0 0
188 1 5.311173296018009 5.597109168029308 16.43392336078751 0 0 0
153 1 9.578959254834961 4.04295087889588 17.616195126363166 0 0 0
316 1 10.956593114097524 5.4154116076343515 16.348095843993054 0 0 0
281 1 15.01735572493156 4.086923916433143 17.692056420605667 0 0 0
444 1 16.278779240161917 5.452315108091813 16.219904787659598 0 0 0
60 1 0.09436943450010915 5.291794066302735 16.467958054464695 0 0 0
409 1 20.412014696028734 3.9589981950248467 17.62215729687202 0 0 0
62 1 2.6462139988330855 8.240587317342538 16.324715819841153 0 0 0
63 1 1.333496849863314 6.726306573160932 17.77841443630406 0 0 0
190 1 8.090093114701993 8.070707913203064 16.162803708500636 0 0 0
191 1 6.746579256915477 6.800602028215262 17.628125570254745 0 0 0
319 1 12.327817717616972 6.636178016911389 17.60556984725536 0 0 0
318 1 13.604686755180083 8.118154787287393 16.272832783587067 0 0 0
447 1 17.70464128372377 6.834227887114912 17.65801356903052 0 0 0
446 1 19.154794164626182 8.0831963235471 16.345763346685118 0 0 0
95 1 1.2537947971318284 12.281810627112566 17.705576077431743 0 0 0
57 1 4.063654971784801 9.658331739898594 17.63746131482921 0 0 0
220 1 5.401424509083034 10.892317811170155 16.33080298140013 0 0 0
185 1 9.460893988539407 9.361228052580945 17.617946252068958 0 0 0
348 1 10.933136489984605 10.90743842674969 16.309293156989007 0 0 0
351 1 12.220687928197316 12.230902137902925 17.757573453302577 0 0 0
313 1 14.719666249188327 9.499498717735007 17.65862528726027 0 0 0
476 1 16.142232885759878 11.032236520636124 16.412917658573352 0 0 0
479 1 17.722742967897407 12.266979316300782 17.717796460440695 0 0 0
92 1 21.623722232259368 10.994273507264518 16.17060795153585 -1 0 0
441 1 20.343866681161778 9.578997074106773 17.62378131147737 0 0 0
94 1 2.5550368812961763 13.609917265450175 16.34584124418863 0 0 0
89 1 4.143258570825025 14.888018075585084 17.717715404484068 0 0 0
223 1 6.928760553305785 12.31384717822666 17.641008290445573 0 0 0
222 1 8.23099033864468 13.633470097862807 16.482437101111127 0 0 0
217 1 9.488594109157027 15.040058249220367 17.824519996862282 0 0 0
345 1 14.997986694654967 14.929680490889032 17.718834862713823 0 0 0
350 1 13.458513648840986 13.650366854051384 16.392842095685328 0 0 0
473 1 20.30180170884804 14.966143207610884 17.64584423855385 0 0 0
478 1 18.89818469338405 13.636701630767197 16.194654005366758 0 0 0
127 1 1.3033039884584177 17.64858829833204 17.96883445255058 0 0 0
252 1 5.333255702119196 16.325136904998118 16.154900350072847 0 0 0
255 1 6.706647899373866 17.626450513471866 17.535515349964577 0 0 0
380 1 10.95232223270221 16.352563013790938 16.343136393651736 0 0 0
383 1 12.218124719123601 17.651234938125054 17.786208717487874 0 0 0
508 1 16.395028886182114 16.3028860855524 16.33528972711342 0 0 0
511 1 17.717846093759473 17.82005048970914 17.74261025966289 0 0 0
124 1 21.70122996804884 16.40903282669761 16.417966774932463 -1 0 0
126 1 2.6211283870335875 18.985739521708226 16.399231826677262 0 0 0
156 1 5.473975626990253 21.731362681319965 16.388110959552026 0 -1 0
121 1 4.192896132935132 20.29473832231629 17.82248178467365 0 0 0
254 1 8.068055878003822 19.09250139479577 16.344910641813097 0 0 0
284 1 10.979351744615192 21.737249521463823 16.225322587780784 0 -1 0
249 1 9.685114265764218 20.393042293673044 17.695047417901296 0 0 0
377 1 15.210067382820554 20.371139143698265 17.583599243981844 0 0 0
382 1 13.640292708299373 18.932295626232914 16.460292181390773 0 0 0
505 1 20.277609775276694 20.41898014092809 17.665752025595637 0 0 0
510 1 19.063172343169086 19.048731419169368 16.241557179707428 0 0 0
6 1 1.7268019866075521 1.3947898547020219 21.287895616917492 0 0 -1