LAMMPS (10 Sep 2025)
OMP_NUM_THREADS environment is not set. Defaulting to 1 thread.
  using 1 OpenMP thread(s) per MPI task
Loaded 1 plugins from C:\Users\lmike\AppData\Local\LAMMPS 64-bit 10Sep2025 with GUI\plugins
# LAMMPS input generated from LammpsInputFile with pymatgen v2025.10.7

# STYLES
units metal
atom_style atomic

# SET UP CALCULATION
read_data starting_config.dat
Reading data file ...
  orthogonal box = (0 0 0) to (21.77481 21.77481 21.77481)
  1 by 1 by 1 MPI processor grid
  reading atoms ...
  513 atoms
  read_data CPU = 0.002 seconds
pair_style sw
pair_coeff * * Si.sw Si
Reading sw potential file Si.sw with DATE: 2007-06-11
velocity all create 700 4868117

# CALCULATION PARAMETERS
fix f1 all nvt temp 700.0 700.0 $(100.0*dt)
fix f1 all nvt temp 700.0 700.0 0.10000000000000000555
thermo 100000
thermo_style custom step temp press spcpu cpuremain

# RUN CALC AND WRITE OUTPUTS
dump d1 all custom 100 state_dump id type x y z vx vy vz
run 10000000
Neighbor list info ...
  update: every = 1 steps, delay = 0 steps, check = yes
  max neighbors/atom: 2000, page size: 100000
  master list distance cutoff = 5.77118
  ghost atom cutoff = 5.77118
  binsize = 2.88559, bins = 8 8 8
  1 neighbor lists, perpetual/occasional/extra = 1 0 0
  (1) pair sw, perpetual
      attributes: full, newton on
      pair build: full/bin/atomonly
      stencil: full/bin/3d
      bin: standard
Per MPI rank memory allocation (min/avg/max) = 3.119 | 3.119 | 3.119 Mbytes
   Step          Temp          Press          S/CPU         CPULeft    
         0   700            6197.0327      0              0            
    100000   726.56993      3485.2935      1082.0707      9149.1254    
    200000   704.48009      3500.4735      1074.2769      9089.5626    
    300000   700.24366      4093.2595      1055.9986      9059.7474    
    400000   696.29355      3588.5984      1083.959       8938.8669    
    500000   685.43023      2960.1124      1062.0515      8865.5934    
    600000   705.85707      3274.3277      1064.2278      8782.342     
    700000   709.23415      3884.8303      989.77354      8789.938     
    800000   690.55218      3113.8012      735.22635      9172.6389    
    900000   687.05171      3116.8819      892.69725      9197.4795    
   1000000   717.95905      3715.3727      937.37531      9146.8952    
   1100000   704.53588      3073.2635      993.48041      9037.3668    
   1200000   664.71947      3385.413       997.81215      8926.1127    
   1300000   657.4212       3017.0196      932.6002       8863.4547    
   1400000   678.94314      3466.2592      923.7214       8800.761     
   1500000   679.7289       3654.6746      911.46659      8740.2401    
   1600000   723.97634      3343.4436      848.46343      8716.341     
   1700000   714.28004      3295.1984      855.43751      8676.6964    
   1800000   649.01365      2703.6633      782.98587      8677.7452    
   1900000   654.54976      3361.004       991.42695      8550.7677    
   2000000   689.96657      2964.0287      883.06601      8475.9098    
   2100000   662.10651      3627.0698      991.65304      8350.7483    
   2200000   679.11631      3792.4192      997.67384      8225.64      
   2300000   707.06403      2984.6206      986.44941      8106.5131    
   2400000   708.9171       3570.3492      897.04686      8020.8592    
   2500000   735.94466      3592.7541      899.30695      7932.2989    
   2600000   692.21865      3858.9063      874.09912      7851.1243    
   2700000   684.4015       3691.1576      858.03468      7773.2794    
   2800000   710.97003      3111.3983      883.67651      7683.974     
   2900000   697.97007      3767.5172      915.85755      7583.2882    
   3000000   682.3515       2776.5798      876.71404      7493.4106    
   3100000   743.53378      4069.2056      890.05731      7398.1666    
   3200000   710.74443      3244.6663      899.21706      7299.4214    
   3300000   692.02025      2830.0567      899.93568      7199.7406    
   3400000   700.66654      3584.5275      888.76227      7102.0988    
   3500000   702.25968      3140.4255      919.89824      6996.5343    
   3600000   686.98976      3745.986       879.07824      6899.7691    
   3700000   696.46794      3117.2555      903.19145      6796.9144    
   3800000   697.65978      4006.1433      913.39196      6691.6284    
   3900000   729.24197      3320.3645      905.20913      6587.6752    
   4000000   717.86114      3934.2975      895.30978      6485.2283    
   4100000   706.87769      4337.2847      882.8946       6384.5905    
   4200000   683.50065      2949.8262      900.22187      6280.3409    
   4300000   747.71109      3736.7524      916.45925      6173.1645    
   4400000   679.26987      3110.5881      875.40494      6072.4128    
   4500000   700.55806      3916.3677      933.47764      5962.3762    
   4600000   706.18652      3647.3944      889.59636      5858.6694    
   4700000   697.13026      2931.8598      873.95308      5756.8611    
   4800000   754.60766      3951.4404      902.96307      5650.5448    
   4900000   732.19466      4148.2195      880.60949      5546.9736    
   5000000   715.94673      3252.96        886.82129      5442.2075    
   5100000   714.94959      2894.5311      893.98659      5336.2595    
   5200000   738.38682      2990.428       873.49142      5232.5068    
   5300000   672.06073      2942.0021      855.79509      5130.4486    
   5400000   661.1826       2920.518       907.42381      5022.1791    
   5500000   723.06167      4154.9136      889.22425      4915.6847    
   5600000   675.90407      2996.2024      895.63119      4808.3453    
   5700000   664.51702      2463.3366      881.99493      4702.1568    
   5800000   688.06288      3973.9379      891.10067      4594.8813    
   5900000   749.80318      3763.5098      868.4003       4489.4768    
   6000000   635.59338      3231.2276      923.28391      4379.1838    
   6100000   715.74566      3779.268       898.18201      4270.8911    
   6200000   689.96776      2969.6818      885.80116      4163.4539    
   6300000   712.77542      3700.4881      867.71751      4057.2254    
   6400000   685.81292      2367.409       915.52284      3947.3302    
   6500000   697.92586      3575.8341      868.03266      3840.6733    
   6600000   754.92958      3772.0674      882.88396      3732.7591    
   6700000   683.31239      4533.6643      902.68493      3623.4614    
   6800000   693.97939      3326.5939      860.70348      3516.6629    
   6900000   686.49068      2858.0963      870.92381      3408.9799    
   7000000   681.703        2690.5054      911.93436      3298.8799    
   7100000   685.43494      3526.6738      869.86712      3190.9584    
   7200000   739.66432      3838.3998      891.49805      3081.7567    
   7300000   687.60051      3435.0727      908.39141      2971.7021    
   7400000   719.50939      3726.3804      916.98786      2861.284     
   7500000   660.84828      2807.2664      898.04045      2751.6694    
   7600000   718.90536      3372.6708      912.1988       2641.4632    
   7700000   690.42189      3405.9148      904.49303      2531.551     
   7800000   677.00695      3933.1037      878.1015       2422.5595    
   7900000   645.97506      3190.357       890.36771      2313.0271    
   8000000   687.75623      3334.7179      914.92228      2202.6717    
   8100000   694.14006      3683.2071      882.28098      2093.2908    
   8200000   701.57295      3224.383       894.61874      1983.4702    
   8300000   703.51149      3557.1694      910.88097      1873.1936    
   8400000   696.537        3171.8269      895.91933      1763.278     
   8500000   723.28134      3220.3192      917.20701      1652.8652    
   8600000   717.95362      3065.7404      926.49317      1542.3068    
   8700000   718.2917       3116.1726      894.67969      1432.3822    
   8800000   720.04039      3414.4471      888.05859      1322.5292    
   8900000   683.8667       3080.1928      915.67266      1212.1946    
   9000000   737.11688      3369.4185      902.57102      1102.0612    
   9100000   678.75626      3335.9812      905.58115      991.8769     
   9200000   674.17339      3201.5559      898.66655      881.76117    
   9300000   718.17687      3769.1908      896.93717      771.63665    
   9400000   688.42574      2825.9897      912.22333      661.36381    
   9500000   677.10164      3190.7035      903.96755      551.15736    
   9600000   696.64949      3664.918       909.80199      440.91266    
   9700000   714.66443      4038.5866      892.3055       330.74143    
   9800000   746.53928      4275.7409      898.1923       220.51648    
   9900000   650.99231      3240.6898      895.07898      110.27303    
  10000000   708.34056      3165.9196      908.04581      0            
Loop time of 11027.2 on 1 procs for 10000000 steps with 513 atoms

Performance: 78.352 ns/day, 0.306 hours/ns, 906.852 timesteps/s, 465.215 katom-step/s
99.3% CPU use with 1 MPI tasks x 1 OpenMP threads

MPI task timing breakdown:
Section |  min time  |  avg time  |  max time  |%varavg| %total
---------------------------------------------------------------
Pair    | 10835      | 10835      | 10835      |   0.0 | 98.25
Neigh   | 0.025349   | 0.025349   | 0.025349   |   0.0 |  0.00
Comm    | 30.708     | 30.708     | 30.708     |   0.0 |  0.28
Output  | 103.33     | 103.33     | 103.33     |   0.0 |  0.94
Modify  | 47.224     | 47.224     | 47.224     |   0.0 |  0.43
Other   |            | 11.34      |            |       |  0.10

Nlocal:            513 ave         513 max         513 min
Histogram: 1 0 0 0 0 0 0 0 0 0
Nghost:           1458 ave        1458 max        1458 min
Histogram: 1 0 0 0 0 0 0 0 0 0
Neighs:              0 ave           0 max           0 min
Histogram: 1 0 0 0 0 0 0 0 0 0
FullNghs:        18112 ave       18112 max       18112 min
Histogram: 1 0 0 0 0 0 0 0 0 0

Total # of neighbors = 18112
Ave neighs/atom = 35.306043
Neighbor list builds = 44
Dangerous builds = 0
write_data FINAL_STRUCTURE
System init for write_data ...
Total wall time: 3:03:47
