LAMMPS (10 Sep 2025)
OMP_NUM_THREADS environment is not set. Defaulting to 1 thread.
  using 1 OpenMP thread(s) per MPI task
Loaded 1 plugins from C:\Users\lmike\AppData\Local\LAMMPS 64-bit 10Sep2025 with GUI\plugins
# LAMMPS input generated from LammpsInputFile with pymatgen v2025.10.7

# STYLES
units metal
atom_style atomic

# SET UP CALCULATION
read_data starting_config.dat
Reading data file ...
  orthogonal box = (0 0 0) to (21.754625 21.754625 21.754625)
  1 by 1 by 1 MPI processor grid
  reading atoms ...
  513 atoms
  read_data CPU = 0.002 seconds
pair_style sw
pair_coeff * * Si.sw Si
Reading sw potential file Si.sw with DATE: 2007-06-11
velocity all create 700 7134727

# CALCULATION PARAMETERS
fix f1 all nvt temp 700.0 700.0 $(100.0*dt)
fix f1 all nvt temp 700.0 700.0 0.10000000000000000555
thermo 100000
thermo_style custom step temp press spcpu cpuremain

# RUN CALC AND WRITE OUTPUTS
dump d1 all custom 100 state_dump id type x y z vx vy vz
run 10000000
Neighbor list info ...
  update: every = 1 steps, delay = 0 steps, check = yes
  max neighbors/atom: 2000, page size: 100000
  master list distance cutoff = 5.77118
  ghost atom cutoff = 5.77118
  binsize = 2.88559, bins = 8 8 8
  1 neighbor lists, perpetual/occasional/extra = 1 0 0
  (1) pair sw, perpetual
      attributes: full, newton on
      pair build: full/bin/atomonly
      stencil: full/bin/3d
      bin: standard
Per MPI rank memory allocation (min/avg/max) = 3.119 | 3.119 | 3.119 Mbytes
   Step          Temp          Press          S/CPU         CPULeft    
         0   700            9061.7763      0              0            
    100000   740.58305      6620.2374      847.58976      11680.179    
    200000   699.22554      6512.5501      613.20627      13771.885    
    300000   697.99345      6157.9615      664.22768      13955.379    
    400000   697.13448      6297.7832      765.83055      13492.484    
    500000   695.15375      6886.7407      606.37261      13814.937    
    600000   700.93089      5727.6911      485.03868      14621.247    
    700000   744.40403      7080.6949      570.82148      14726.646    
    800000   673.35201      6059.9904      586.99178      14706.399    
    900000   689.02943      5929.2538      564.15927      14722.508    
   1000000   685.57952      5939.3426      580.45543      14655.157    
   1100000   711.25299      7006.0333      574.142        14584.055    
   1200000   723.78897      6667.8735      600.23914      14440.242    
   1300000   693.73795      6404.7482      580.26547      14331.302    
   1400000   687.56947      5295.5914      577.18932      14218.947    
   1500000   706.85852      6347.8475      610.3924       14045.067    
   1600000   705.69095      6607.2197      584.80846      13910.072    
   1700000   728.37648      6437.8569      569.11032      13793.869    
   1800000   730.61698      6490.4843      594.47968      13636.894    
   1900000   734.87633      6249.3199      583.10342      13492.728    
   2000000   728.76781      6143.6239      591.65073      13335.918    
   2100000   713.93363      6196.8581      595.07257      13174.289    
   2200000   701.83516      6418.9579      589.37949      13017.832    
   2300000   708.10474      6352.3267      582.5791       12866.856    
   2400000   698.00004      5958.6966      598.84515      12699.393    
   2500000   747.99023      6285.3292      564.41376      12562.529    
   2600000   716.63679      5586.875       572.67619      12415.289    
   2700000   663.7922       5171.1599      594.43163      12248.741    
   2800000   685.52515      6271.4029      569.5038       12101.009    
   2900000   697.11398      6102.1107      568.76682      11951.912    
   3000000   660.9662       6354.1841      568.373        11801.318    
   3100000   683.96266      6340.8697      558.77879      11655.812    
   3200000   664.08679      5807.204       557.31163      11509.217    
   3300000   723.03651      6378.8671      554.26613      11362.633    
   3400000   670.70473      6041.1052      593.82564      11190.728    
   3500000   702.31276      6493.2122      593.26077      11019.321    
   3600000   737.32264      6778.8879      573.16291      10858.579    
   3700000   666.68298      5847.895       580.31346      10693.435    
   3800000   699.87388      5855.8936      577.70383      10529.184    
   3900000   725.61837      6794.7258      585.13911      10361.038    
   4000000   750.84154      6634.4505      573.22189      10198.084    
   4100000   729.46897      6608.6136      589.14046      10027.786    
   4200000   712.50718      6563.2132      584.81061      9859.2501    
   4300000   703.01418      5752.9574      564.65227      9698.692     
   4400000   696.5946       6725.1312      586.04215      9529.1552    
   4500000   685.88952      5876.65        571.20888      9364.9852    
   4600000   702.18455      6442.5383      576.03643      9198.6192    
   4700000   721.57266      6299.9582      561.85126      9036.8877    
   4800000   714.94862      6113.687       587.42013      8866.0864    
   4900000   727.26396      6198.1241      572.40007      8699.9575    
   5000000   690.08189      7044.9195      570.76474      8533.9863    
   5100000   661.97232      5622.902       581.12302      8364.6525    
   5200000   678.56705      6288.7442      584.36193      8194.3326    
   5300000   725.18406      6425.2827      603.94796      8019.061     
   5400000   715.02958      5981.4391      572.81929      7851.8132    
   5500000   708.0376       6792.586       557.06488      7688.3386    
   5600000   695.59121      5826.9419      586.18305      7517.2849    
   5700000   699.92104      6295.7829      572.49239      7349.3248    
   5800000   651.49671      6046.5561      580.0925       7179.4761    
   5900000   696.47278      6965.4662      587.87551      7007.9553    
   6000000   671.40814      6265.5501      564.94146      6841.0854    
   6100000   654.44009      6447.3535      580.23314      6670.9005    
   6200000   685.87774      5963.7998      575.84085      6501.4517    
   6300000   707.59281      5658.4984      577.86696      6331.5116    
   6400000   666.67358      5967.3548      600.76864      6157.7636    
   6500000   724.4971       6183.5569      566.38842      5989.6807    
   6600000   693.72552      6276.194       589.17234      5817.8236    
   6700000   721.91168      6392.7348      594.63887      5645.2615    
   6800000   663.84472      6148.2458      582.57337      5474.4677    
   6900000   709.44951      6038.3597      583.1647       5303.5707    
   7000000   659.63845      6083.0524      576.81335      5133.4664    
   7100000   690.33212      5454.028       581.58825      4962.6888    
   7200000   713.90119      6321.0357      565.02023      4793.8395    
   7300000   705.25906      6326.2502      561.96892      4625.1228    
   7400000   693.48425      6203.3947      585.69549      4453.624     
   7500000   718.19361      6651.5091      595.59459      4281.1995    
   7600000   717.51247      6119.6493      590.27555      4109.3718    
   7700000   699.48292      6336.5982      580.57614      3938.4523    
   7800000   677.75495      5128.9907      565.63543      3768.7822    
   7900000   695.39162      6398.3832      572.24026      3598.3892    
   8000000   718.67147      6110.9774      587.96672      3426.7188    
   8100000   738.05301      6288.804       592.56861      3254.7779    
   8200000   719.74447      6145.3174      577.25355      3083.8975    
   8300000   734.52173      6176.5587      583.28709      2912.5933    
   8400000   686.54088      6748.8599      587.63725      2741.0441    
   8500000   655.01051      5161.661       591.60089      2569.326     
   8600000   687.55756      6348.676       566.86857      2398.871     
   8700000   673.9908       5846.2138      574.45592      2227.931     
   8800000   699.60519      6761.7917      561.19856      2057.4804    
   8900000   733.06799      6296.8377      573.33488      1886.3897    
   9000000   708.36314      6661.7348      599.67891      1714.3738    
   9100000   722.36827      6496.2706      570.21111      1543.3257    
   9200000   689.27676      6143.1189      578.50336      1371.965     
   9300000   674.14836      5706.5747      569.55055      1200.7766    
   9400000   729.84352      5983.8039      579.35772      1029.3051    
   9500000   690.72893      6369.2017      580.45668      857.79249    
   9600000   651.18065      6071.1882      575.18008      686.32983    
   9700000   746.76242      6886.0205      561.38848      514.94987    
   9800000   717.85923      5945.3504      552.9334       343.48774    
   9900000   678.76435      5972.2616      574.31399      171.76788    
  10000000   617.74559      5856.8647      566.95826      0            
Loop time of 17181.4 on 1 procs for 10000000 steps with 513 atoms

Performance: 50.287 ns/day, 0.477 hours/ns, 582.025 timesteps/s, 298.579 katom-step/s
99.5% CPU use with 1 MPI tasks x 1 OpenMP threads

MPI task timing breakdown:
Section |  min time  |  avg time  |  max time  |%varavg| %total
---------------------------------------------------------------
Pair    | 16901      | 16901      | 16901      |   0.0 | 98.37
Neigh   | 0.077405   | 0.077405   | 0.077405   |   0.0 |  0.00
Comm    | 43.879     | 43.879     | 43.879     |   0.0 |  0.26
Output  | 154.55     | 154.55     | 154.55     |   0.0 |  0.90
Modify  | 65.41      | 65.41      | 65.41      |   0.0 |  0.38
Other   |            | 16.43      |            |       |  0.10

Nlocal:            513 ave         513 max         513 min
Histogram: 1 0 0 0 0 0 0 0 0 0
Nghost:           1458 ave        1458 max        1458 min
Histogram: 1 0 0 0 0 0 0 0 0 0
Neighs:              0 ave           0 max           0 min
Histogram: 1 0 0 0 0 0 0 0 0 0
FullNghs:        18136 ave       18136 max       18136 min
Histogram: 1 0 0 0 0 0 0 0 0 0

Total # of neighbors = 18136
Ave neighs/atom = 35.352827
Neighbor list builds = 107
Dangerous builds = 0
write_data FINAL_STRUCTURE
System init for write_data ...
Total wall time: 4:46:21
