LAMMPS data file via write_data, version 10 Sep 2025, timestep = 10000000, units = metal

517 atoms
1 atom types

0 21.790885 xlo xhi
0 21.790885 ylo yhi
0 21.790885 zlo zhi

Masses

1 28.085

Atoms # atomic

513 1 1.3523001035040934 1.4599590464389696 1.3387721430276702 0 0 0
515 1 0.32305296999735417 2.7002216222744018 2.8862408738794474 0 0 0
6 1 2.7972136192355515 2.681831427732896 21.777221388549744 0 0 -1
130 1 5.547366539419751 2.7585920570000027 2.6006431267581847 0 0 0
135 1 6.921592364255028 1.3688248862343004 1.2169267157118393 0 0 0
136 1 8.376788469908124 0.12022532537691942 2.5184159826194636 0 0 0
258 1 10.970633283094058 2.6186391000503306 2.554389161363097 0 0 0
263 1 12.327806627910988 1.3885772408145638 1.0807748995486437 0 0 0
264 1 13.754353851919964 21.73033919623422 2.4264186054357966 0 -1 0
391 1 17.864585689720144 1.2550218342091835 1.4897212634666697 0 0 0
386 1 16.391902552317486 2.683506581464954 2.5349202224355745 0 0 0
387 1 19.215372792309005 21.5882182058358 2.641420280799579 0 -1 0
40 1 3.021851399246213 5.4631682891717315 2.9255511429073437 0 0 0
1 1 4.135632081529531 4.17067637055053 1.2697963641369665 0 0 0
164 1 5.22436275804755 5.711840021570522 21.683274537748545 0 0 -1
168 1 8.227420175582653 5.219233650345512 2.595785791527443 0 0 0
129 1 9.651903414466771 3.9791354740672698 1.286717892992702 0 0 0
292 1 10.84932468681467 5.289733999787464 21.6365636814269 0 0 -1
257 1 14.909446528382633 3.873084849707435 1.1126081002252883 0 0 0
296 1 13.742753889184804 5.265035539113707 2.5655775141940214 0 0 0
424 1 19.253640975046828 5.579049769646494 2.6922151782223875 0 0 0
385 1 20.744408961253463 3.9963487907830944 1.2297658784273928 0 0 0
39 1 1.490024158474019 6.760743903993312 1.4337108586996863 0 0 0
34 1 0.06675810411466898 8.108601278409138 2.7636323153858027 0 0 0
162 1 5.591553473054477 8.21967668990583 2.66186959131307 0 0 0
167 1 6.750740202931843 6.697572037473083 1.3851946731078653 0 0 0
290 1 10.782140417163564 8.133526062807658 2.823994121695752 0 0 0
295 1 12.122821838344866 6.581269383120302 1.5491927971774748 0 0 0
289 1 14.98353300804599 9.532046534541982 1.4333928399507707 0 0 0
423 1 17.73542353397528 6.631973780104909 1.136417593771237 0 0 0
418 1 16.185312241695364 7.95834762423694 2.6946497431032004 0 0 0
417 1 20.55799546485084 9.605916969117112 1.399882953356117 0 0 0
71 1 1.6219145409555977 12.129781063350901 1.2090321805272286 0 0 0
72 1 2.7580509661787596 10.896914593814358 2.909219843772044 0 0 0
33 1 4.052354832323714 9.549330925052555 1.4299124531848835 0 0 0
196 1 5.460943321690729 10.86407111291247 21.643977020153695 0 0 -1
200 1 7.93402270003015 10.992011208983591 2.6631836210638324 0 0 0
199 1 6.808026966146264 12.322553322528972 1.1942338385786984 0 0 0
161 1 9.428651989974954 9.535486726767948 1.4835218240809307 0 0 0
324 1 10.865069471881586 10.775402780553152 0.07844702187824654 0 0 0
327 1 12.185908804452732 12.269099117648391 1.2826239394142984 0 0 0
328 1 13.330023528249026 10.821279550066036 2.5733099737984455 0 0 0
455 1 17.78988371571177 12.169443633388855 1.2307982251759715 0 0 0
456 1 19.057125885979815 10.710124634512336 2.7574813174563335 0 0 0
70 1 3.0320350013793576 13.53628041549351 21.51111273500086 0 0 -1
66 1 0.009514486735011592 13.463729273025574 2.3416675931448863 0 0 0
65 1 4.1569193571348295 15.107675735659525 1.2917366300965 0 0 0
194 1 5.4886086573607695 13.495493272756311 2.557040644480431 0 0 0
193 1 9.571421238233189 14.994497751383536 1.3286928266724547 0 0 0
322 1 10.963169408439196 13.721245968065702 2.7059260374646423 0 0 0
321 1 15.141736864532964 14.660800969237963 1.3200051711371015 0 0 0
326 1 13.79046550833411 13.408422184422252 21.67864463638187 0 0 -1
450 1 16.581249100764897 13.35984263637373 2.661371097443392 0 0 0
449 1 20.538056081036455 15.156461075098427 1.0341999087773928 0 0 0
103 1 1.5833498107394564 17.655913312415027 1.2507229686340535 0 0 0
104 1 2.7763929237321707 16.265431819275026 2.6570606096022584 0 0 0
100 1 0.13782409550947383 16.405120471513758 21.44930155299911 0 0 -1
228 1 5.550516355437649 16.37743703737718 21.572573990808596 0 0 -1
231 1 6.747600530019355 17.669918765872758 1.1333534919572072 0 0 0
232 1 8.2000588350436 16.250310450256393 2.768271013571763 0 0 0
359 1 12.451140871261279 17.544304611609807 1.4107155750547244 0 0 0
360 1 13.853345191851512 16.314200831994473 2.753563774633739 0 0 0
487 1 17.782282052451375 17.668075667418318 1.39714421147394 0 0 0
488 1 19.334404064786213 16.429582786470743 2.5802874909149818 0 0 0
8 1 2.677954629214935 21.771956808807488 2.519984637755183 0 -1 0
98 1 0.19861222359707661 18.908623125414103 2.6249672197203178 0 0 0
226 1 5.419901096791332 19.17946194758164 2.598773254067327 0 0 0
97 1 4.146270949661051 20.557821862258162 1.1177102076924277 0 0 0
132 1 5.545783470950322 0.025324165983537233 21.595852422101775 0 0 -1
225 1 9.625299031397526 20.552284308384973 1.2353932474310991 0 0 0
354 1 10.953427819267926 19.035516299103353 2.582548625890428 0 0 0
353 1 15.108376357816432 20.102266930990105 1.4457488990026983 0 0 0
358 1 13.782950192119843 18.89664104158226 0.0439991020098951 0 0 0
482 1 16.462983236314514 18.642074841689105 2.931566401219353 0 0 0
388 1 16.27447465861698 21.68744746293851 0.06485588376505547 0 -1 0
481 1 20.622027753041145 20.416684106334856 1.2880739085815673 0 0 0
516 1 2.9981968057728103 2.7736322278379997 5.50049320083498 0 0 0
3 1 4.2690833996859565 1.4136992697263744 3.8766685061777126 0 0 0
131 1 8.132055425526666 2.8898188760381323 5.373633886726582 0 0 0
514 1 9.621370387735615 1.5437252020283128 3.9893577125438986 0 0 0
268 1 10.88619422653962 0.09763476020000894 5.235693619453629 0 0 0
259 1 15.056599128871996 1.25504494259409 3.8090136505461096 0 0 0
270 1 13.621290275311999 2.7471805264893323 5.111145136357877 0 0 0
7 1 20.56833666389728 1.1597017080005683 3.952933911061852 -1 0 0
392 1 19.472131922744747 2.9721097433198786 5.000621172873317 0 0 0
172 1 1.690468574808418 3.9862681510475833 4.231412107641151 0 0 0
44 1 0.4601371778283995 5.741509280897137 5.186953669383825 0 0 0
35 1 5.62135851993954 5.546095891029296 5.3133842606171395 0 0 0
133 1 6.761038371108195 4.060402492571907 4.0490956891782375 0 0 0
300 1 11.227042830526155 5.4980053439152705 5.268473264079904 0 0 0
261 1 12.241315665991229 3.9934524117835823 3.815241552705841 0 0 0
389 1 17.723229477305722 4.202858427365554 3.997688964503513 0 0 0
428 1 16.41470353317751 5.253459671040592 5.523584539754852 0 0 0
46 1 2.760941720898178 8.155346141693828 5.469029761416509 0 0 0
165 1 4.3262303602399905 6.960525020983874 4.141799526019611 0 0 0
174 1 8.169726395914395 8.186461548826507 5.586346132082733 0 0 0
163 1 9.511627690581038 6.793002414826086 4.164569571980815 0 0 0
291 1 15.133449590178618 6.483851466935887 4.043028996457126 0 0 0
302 1 13.735188992450889 8.019455930093793 5.055840228349713 0 0 0
421 1 17.467519689547895 9.392767594331126 4.162119741997701 0 0 0
430 1 19.155771544974773 8.198092326529805 5.44679559087747 0 0 0
419 1 20.58277101620046 6.807898520575696 4.218509031195007 0 0 0
37 1 1.435720299638788 9.314145652471002 4.158924914092137 0 0 0
76 1 0.09173805067824503 10.808355955550105 5.3942883912600825 0 0 0
204 1 5.682821444672905 10.962980185043875 5.365005980269209 0 0 0
67 1 4.210544056455865 12.231237039450198 4.052382146675305 0 0 0
517 1 6.870291660663107 9.473045901454094 4.02053629017993 0 0 0
332 1 10.56266612071651 10.87295901414538 5.159670886755992 0 0 0
195 1 9.257585914814253 12.453475374231704 3.8767453394318845 0 0 0
293 1 12.253330969783878 9.2957118264545 4.076369402340598 0 0 0
323 1 14.840709708472462 12.195905322353678 4.112581484185074 0 0 0
460 1 16.262082872903566 11.104232153846281 5.443805516035248 0 0 0
451 1 20.539259444438315 12.104461874193863 4.052305804892831 0 0 0
69 1 1.3503001536740793 14.731866985497785 3.9389314619050197 0 0 0
78 1 2.7676655926036666 13.317207984903083 5.397164053131328 0 0 0
206 1 7.9917178510220594 13.792898572142168 5.250352629638203 0 0 0
197 1 6.837452955546529 14.853769283210667 3.7368676044726827 0 0 0
325 1 12.409372579974596 15.112761928599866 4.002427772909487 0 0 0
334 1 13.503311388028106 13.655414094980147 5.466989587999656 0 0 0
453 1 17.742189888454945 15.01056214003002 4.1144069339878415 0 0 0
462 1 19.30885399923881 13.712052555837053 5.354331832113849 0 0 0
108 1 0.2686091677521452 16.112751345943455 5.387434391657542 0 0 0
99 1 4.151424817592192 17.88337521527231 3.9096994836617234 0 0 0
236 1 5.488481037695755 16.325425804924016 4.961780654848962 0 0 0
227 1 9.726860480319113 17.645566919933078 4.0502666622653125 0 0 0
364 1 11.086657456126499 16.49031721779765 5.34124119013514 0 0 0
355 1 15.031656212956838 17.68055428393327 4.241650896857644 0 0 0
492 1 16.30917953593801 16.175114286260595 5.555470606163853 0 0 0
483 1 20.75022172400435 17.557125489941583 3.9695644213582657 0 0 0
101 1 1.4480373951201473 20.51005469038498 3.9433598211743366 0 0 0
110 1 2.869212173956078 19.138149021588752 5.268908285866693 0 0 0
12 1 0.1567115617057671 0.15376984491304668 5.480490335205354 0 0 0
140 1 5.648875878354386 21.725387035548813 5.306268033365049 0 -1 0
238 1 8.270564177769698 19.107617005140483 5.3772722888707145 0 0 0
229 1 6.909115105552052 20.36646684915363 3.7601826843217867 0 0 0
357 1 12.305654681992685 20.5185274105112 4.061373227273063 0 0 0
366 1 13.531221570403583 19.19988457436622 5.471627280618407 0 0 0
396 1 16.404270620475476 21.541273190223315 5.251799045053352 0 -1 0
485 1 17.91022248165423 20.145513923681904 4.058334954176601 0 0 0
494 1 19.304285407294653 18.765312553118022 5.372644680487484 0 0 0
15 1 1.4618533666622153 1.394592201835659 6.801149947695812 0 0 0
142 1 5.637460030594514 2.8960085383360115 8.027231608397681 0 0 0
143 1 6.931751379898415 1.4982176770389395 6.792273589079732 0 0 0
266 1 10.8068403610299 2.9368057685119693 8.27081227223301 0 0 0
271 1 12.343404656430238 1.5971387397966064 6.662118241156647 0 0 0
272 1 13.580534512399987 0.02955255125149492 7.993108239735995 0 0 0
399 1 17.60153199546126 1.8162028975487405 6.327996247872301 0 0 0
394 1 16.405636998384598 2.6664033309785427 8.326073287545972 0 0 0
395 1 18.685505152859562 1.5736811932995338 9.344613098335351 0 0 0
13 1 20.330415764984323 1.6627545811307045 7.629997213947351 -1 0 0
5 1 0.8473124877197777 3.5663422969434997 7.4215444564984505 0 0 0
48 1 2.9861319571866964 5.643491135780878 8.123921945830277 0 0 0
9 1 1.6113531670501395 4.467671764104935 9.620946034792373 0 0 0
138 1 4.216374992783235 4.220591940151027 6.702113317943577 0 0 0
176 1 8.279231915184834 5.543068387500539 8.107555127729047 0 0 0
141 1 6.973044356375046 4.322381835567045 9.64906936041351 0 0 0
137 1 9.663112551152025 4.307226063346461 6.62489181861336 0 0 0
265 1 15.059166894564003 3.817218256228285 6.616195043755607 0 0 0
304 1 13.759646267999361 5.341472090424832 8.090428986684138 0 0 0
398 1 20.59794021618633 4.42515043649751 6.462571515592751 0 0 0
432 1 19.15587550312431 5.66537815990517 8.181376628917727 0 0 0
14 1 20.44790233727306 3.6176122565816695 9.77488044983003 -1 0 0
47 1 1.4676255167694958 6.894453083493875 6.8760157043562256 0 0 0
42 1 21.724281452724455 8.504695651481974 7.979733755626854 -1 0 0
170 1 5.5853511936375595 8.341460781679052 8.142487612291553 0 0 0
175 1 6.82881100098277 6.836541716325022 6.786453682840317 0 0 0
298 1 10.999317537584284 8.378255394386102 8.061289517550138 0 0 0
303 1 12.391510764541252 6.838949869273541 6.826254799379987 0 0 0
431 1 17.874639089761672 6.894793613539385 6.70694825333911 0 0 0
426 1 16.462170758126497 8.224676943460006 8.154193983036242 0 0 0
80 1 2.7934928650924706 10.856759670724765 8.039969937501954 0 0 0
79 1 1.3633430658347057 11.906817198441134 6.717307611093623 0 0 0
41 1 4.159110119134187 9.592653758505845 6.560843858843632 0 0 0
208 1 8.328696308970526 11.03497606614673 8.299963634835867 0 0 0
173 1 6.855887939982557 9.84931323917335 9.51347835499902 0 0 0
169 1 9.467673893197004 9.677640725963226 6.94156717816967 0 0 0
297 1 15.067145681832844 9.509041455743155 6.5660262149094155 0 0 0
336 1 13.566631744814098 11.025571675780881 7.959229683591296 0 0 0
331 1 15.162635330575931 12.30418364426367 9.533020486929429 0 0 0
463 1 17.66082821420652 12.519579812130345 6.7327796557780175 0 0 0
425 1 20.28743826048294 9.838898081790909 6.791754282455722 0 0 0
464 1 19.066841722036884 11.228950338064116 8.212543748087285 0 0 0
74 1 21.750125354151336 13.399853463359264 8.039882169962306 -1 0 0
73 1 4.061179292909478 14.788416310907559 6.620125914426863 0 0 0
202 1 5.480741388844484 13.641604440909449 8.03589999687978 0 0 0
207 1 6.920574010801042 12.285013412497575 6.694148569155411 0 0 0
201 1 9.441240014461256 15.026956585625705 6.569884035901896 0 0 0
330 1 11.048867310468612 13.708668741732529 7.93643189861211 0 0 0
335 1 12.14023010273374 12.245816943219815 6.55148435521446 0 0 0
329 1 14.934614386690976 14.93578410806984 6.896178477781888 0 0 0
458 1 16.271656856467096 13.811384751394574 8.273796613928374 0 0 0
457 1 20.448607471140807 14.962332060823451 6.868562801434432 0 0 0
111 1 1.5935480629518928 17.555746871648193 6.620935789700691 0 0 0
112 1 2.73666486816844 16.218290238292717 8.149084733792824 0 0 0
239 1 6.922138646302278 17.603250269713474 6.761557112698404 0 0 0
240 1 8.160244213881167 16.130668404976582 8.180333710746178 0 0 0
367 1 12.290719651431406 17.820639519368285 6.845681658014314 0 0 0
368 1 13.56393844255073 16.435944075106452 8.057821927714134 0 0 0
495 1 17.808023172245385 17.50544469883122 6.916173709867658 0 0 0
496 1 19.156666299616568 16.203541767407216 8.271656284469277 0 0 0
16 1 3.2728206544606717 0.3040600212621136 8.049638295360348 0 0 0
106 1 0.20730892202178827 18.90187528430333 8.019560342324786 0 0 0
234 1 5.474858063316237 19.211691920182012 8.108528993152207 0 0 0
105 1 4.39940638818924 20.404697619019206 6.6749859775292295 0 0 0
144 1 8.26953853636349 0.06742894782373199 8.05523003085734 0 0 0
233 1 9.552085292947016 20.41914851536205 6.645344662666803 0 0 0
362 1 10.855824898235598 19.188170522599684 8.076484124641677 0 0 0
361 1 15.030287037134668 20.534929966693173 6.70605683255169 0 0 0
490 1 16.197800113145966 18.883349945589575 7.980742891465054 0 0 0
400 1 18.414675250404958 21.25502927629621 7.3231661520114475 0 -1 0
489 1 20.574391480703696 20.401814131148885 6.749205182248684 0 0 0
10 1 0.48480947305666566 1.5236139072901869 9.502659519849852 0 0 0
22 1 2.9020321625437457 3.0206714824272063 11.023322579199974 0 0 0
23 1 1.6424603458155054 1.426823930394537 12.31468364170881 0 0 0
11 1 4.224968495446583 1.6966553116284104 9.612948719993705 0 0 0
148 1 5.636898765667258 0.14582944610616266 10.744117570269594 0 0 0
150 1 8.152731007814573 2.7063225389485983 11.14678543505483 0 0 0
151 1 6.8225577290920905 1.244201227230961 12.470223527732225 0 0 0
139 1 9.448455006927492 1.422698817539472 9.623620167351476 0 0 0
279 1 12.315062851176016 1.402950791803084 12.083474493967932 0 0 0
276 1 10.756909890746392 21.760885438276752 10.995465043473137 0 -1 0
267 1 14.8376398532101 1.449286627726309 9.353578349870093 0 0 0
278 1 13.524459556210845 2.754877729508078 10.865570628423944 0 0 0
407 1 17.73680124874618 1.2345541494082275 12.01729743264945 0 0 0
393 1 18.744089531936133 3.5295068291895872 11.787147528624757 0 0 0
406 1 20.612178680160397 1.540654345019053 11.687027595263645 0 0 0
180 1 5.502099152161147 5.752535969772343 10.753657149202226 0 0 0
17 1 4.180427627086208 4.198006962862919 12.402049648126598 0 0 0
269 1 12.272720224551893 4.3524029279598215 9.375004074252764 0 0 0
308 1 10.795075675422705 5.700886992976524 10.794389433163339 0 0 0
145 1 9.582895289154273 4.040385052263697 12.252434940581264 0 0 0
273 1 14.879707030253664 4.160695730240001 12.120646131088618 0 0 0
397 1 17.53174753087723 4.4780285010016385 9.516058771722461 0 0 0
436 1 16.234078020192197 5.599459715606071 11.053019647079104 0 0 0
52 1 0.06890711453006354 5.843678323042044 10.9008068626957 0 0 0
401 1 20.85256700022482 4.551695520380109 12.917112362442605 0 0 0
54 1 2.5667816173713653 8.454185491894085 10.86898895236392 0 0 0
55 1 1.336211798677274 7.114525488853285 12.388109950170167 0 0 0
43 1 4.050157799352469 7.088130937092419 9.485432380232268 0 0 0
182 1 8.069241818400576 8.476478227586234 10.71680539921918 0 0 0
183 1 6.872435752472642 7.085599003521612 12.077053923117843 0 0 0
171 1 9.464135483869633 7.105000088583461 9.370325202193188 0 0 0
311 1 12.338320754625341 6.809710973847629 12.244708782797979 0 0 0
299 1 14.98539442872224 6.832217423066978 9.314648128679794 0 0 0
310 1 13.750902521688687 8.38586870406391 10.72218827606113 0 0 0
439 1 17.58858984400562 7.042037164840298 12.308668645372613 0 0 0
427 1 20.516093236939074 7.140816569381917 9.43753358638785 0 0 0
438 1 18.94869303113454 8.260951656719838 10.854528690127557 0 0 0
45 1 1.3206269918700138 9.638272510415936 9.360869599751817 0 0 0
87 1 1.4264694306808234 12.137236365275065 12.450869788280356 0 0 0
212 1 5.388538029385661 11.318749763634647 10.929515370953785 0 0 0
75 1 3.9792165649825244 12.452737202862604 9.445439729205555 0 0 0
49 1 4.239034802583105 9.672862773317357 12.079783578521946 0 0 0
215 1 6.899318463745714 12.481259606164441 12.242307295787429 0 0 0
177 1 9.706504644970014 9.67728508196623 12.114059675244013 0 0 0
340 1 11.210330639975576 11.149123918823346 10.966882050636196 0 0 0
301 1 12.38386642211678 9.693731703572334 9.380465205642523 0 0 0
305 1 15.09891275350028 9.719785209089395 12.249630417812224 0 0 0
429 1 17.74841924147761 9.647837277510806 9.398863305237498 0 0 0
468 1 16.494187505594407 10.844638232479802 10.843326350057431 0 0 0
471 1 17.604084676078276 12.428501891186182 12.237716565437072 0 0 0
84 1 0.09780842793453104 10.885751720686729 11.065184308051515 0 0 0
433 1 20.429990190244688 9.675766916975071 12.359623412813685 0 0 0
459 1 20.435995682008272 12.321392565896769 9.624677307353958 0 0 0
77 1 1.310828092066676 14.904633005069876 9.361926650301143 0 0 0
86 1 2.619538581700319 13.551424435884671 10.911184229839769 0 0 0
81 1 4.091934624517353 15.05037069906492 12.211547434303544 0 0 0
205 1 6.69818659274549 15.068265016391113 9.60691564483325 0 0 0
214 1 8.170781977521164 13.62670509649456 10.650613865472646 0 0 0
203 1 9.912200405034397 12.347028272816592 9.583782690173184 0 0 0
209 1 9.717897713248933 14.923656546023627 12.289192714446429 0 0 0
343 1 12.449570631142402 12.545232374567744 12.386879574185317 0 0 0
333 1 12.333757826123831 15.138168312839294 9.541204223946439 0 0 0
342 1 13.70582844754595 13.821604366639667 10.767892485755596 0 0 0
337 1 14.929874760259759 14.925202946329549 12.36664518658271 0 0 0
461 1 17.703269616398178 15.20866420554314 9.633650847266107 0 0 0
470 1 19.22421180827017 13.775776198266302 10.905765863168876 0 0 0
465 1 20.647517203964636 15.002319639024092 12.340236240408547 0 0 0
119 1 1.5323956895908089 17.859860696915437 12.168543256373953 0 0 0
107 1 4.245150284046922 17.7805805796611 9.486252636474587 0 0 0
244 1 5.392693702774577 16.45429312575467 11.03074817518735 0 0 0
247 1 6.829674750366787 17.79037458175759 12.189380092722876 0 0 0
235 1 9.61817110745841 17.61030714411064 9.508077018601304 0 0 0
372 1 10.9074571054327 16.303682275924725 11.002618976319011 0 0 0
375 1 12.313588123208842 17.668203228706332 12.302968038921625 0 0 0
363 1 14.87000515810595 17.692316503793048 9.497698828835992 0 0 0
500 1 16.296269632619946 16.228205807177332 11.120287570102047 0 0 0
503 1 17.71319620428556 17.598214261553384 12.351283439654864 0 0 0
491 1 20.657427563804948 17.54554478520808 9.446101251868708 0 0 0
116 1 0.2054205642694824 16.256430360821298 10.92490206040004 0 0 0
109 1 1.6279568160535205 20.568055423765504 9.076881009237301 0 0 0
20 1 0.7902695209404752 21.181078188792952 11.238413241956394 0 -1 0
118 1 2.9914425393408415 19.31292090563128 10.9447477287088 0 0 0
113 1 4.317753881720615 20.654304319449363 12.255379380388828 0 0 0
237 1 7.009587319742288 20.57749258509332 9.54827489236699 0 0 0
246 1 8.219239268277455 19.088049541766907 10.83637334541635 0 0 0
365 1 12.188699505616233 20.645664700839717 9.507806021737588 0 0 0
241 1 9.420656003053326 20.448414588039352 12.267622603405059 0 0 0
374 1 13.695522642134089 19.308818528866173 10.846440132619069 0 0 0
369 1 15.157891248643901 20.397862101035216 12.19321046374968 0 0 0
404 1 16.289195637986257 21.635414842177344 10.488628852423476 0 -1 0
493 1 17.61762496484379 20.21361247650549 9.306573081835682 0 0 0
2 1 20.393626997888887 21.050236686819183 9.553511339986022 -1 -1 0
502 1 19.152083006962467 19.007157123456448 10.776575850282404 0 0 0
18 1 0.21768046441907862 2.6820309580567825 13.909135573749577 0 0 0
24 1 2.9154605662950237 0.13786407657985933 13.716042411992856 0 0 0
19 1 4.099192929981226 1.435723475067563 15.047072283680345 0 0 0
146 1 5.583567532932394 2.7912220724199712 13.738895729226579 0 0 0
152 1 8.11748210861446 0.009037041226099461 13.950018889256674 0 0 0
147 1 9.473902468100052 1.6363661347585847 15.013839796783525 0 0 0
274 1 10.917103137905267 2.6819972555774925 13.470698782724055 0 0 0
275 1 14.889068265323294 1.5554799379994093 14.7643071749682 0 0 0
402 1 16.288487863089422 2.7081237256071575 13.30731563716757 0 0 0
403 1 20.266093924483737 1.2789546277344142 14.94746471320818 0 0 0
408 1 18.94788319765462 21.674100262573617 13.621538508355306 0 -1 0
21 1 1.5409641385782864 4.207736198746965 15.033960087179912 0 0 0
56 1 2.802514220597558 5.716573710964874 13.6137081929597 0 0 0
149 1 6.780592589865825 4.478291131154624 14.651587735028246 0 0 0
184 1 8.312560656964873 5.588534703477133 13.227551238558181 0 0 0
277 1 12.20262224206198 4.1014765489659855 14.855205139167438 0 0 0
312 1 13.648916254885469 5.48323391554005 13.624161114939351 0 0 0
405 1 17.657829542762716 3.9133942290147337 14.863561323476569 0 0 0
440 1 18.842554531375967 5.528034166538995 13.758668581575204 0 0 0
50 1 21.59791846768211 8.163348015634254 13.673796136305986 -1 0 0
51 1 4.16085665301127 6.9535543208693325 15.007570264832756 0 0 0
178 1 5.5289396888139155 8.48820143309542 13.557442524267893 0 0 0
179 1 9.573447051816592 6.901019061783262 14.505604622683158 0 0 0
306 1 11.210943279155424 8.298861125133422 13.556921856217011 0 0 0
307 1 15.132769181450138 6.794439203107479 14.926071059780753 0 0 0
434 1 16.228587312828303 8.424645245935077 13.650104601149225 0 0 0
435 1 20.36650888707338 6.783518615165656 15.036732943149142 0 0 0
53 1 1.3875545546917043 9.64733183223241 14.825542519352068 0 0 0
88 1 2.8464982780209844 10.926326726990531 13.551150716297338 0 0 0
83 1 4.124619322964442 12.164243266697978 14.876658809858933 0 0 0
181 1 6.975700852121362 9.715410083555218 14.862987594698865 0 0 0
216 1 8.283539023818904 10.979233800992107 13.410135757446902 0 0 0
309 1 12.46858365348158 9.71101457069006 15.000097746718197 0 0 0
211 1 9.560179810582069 12.388876913250924 14.954522768218226 0 0 0
344 1 13.855636881264848 11.17255845095218 13.506855867510415 0 0 0
339 1 15.183629218535655 12.445091360243664 15.10319471600416 0 0 0
437 1 17.855331389270905 9.660726288137221 14.914390180056321 0 0 0
472 1 19.074657997538626 11.113475061835688 13.509143987391635 0 0 0
467 1 20.245979674911073 12.19953158460529 15.025519142804962 0 0 0
85 1 1.5097838638760133 15.173872601786826 15.04867205654005 0 0 0
210 1 5.497833834171743 13.733905906206733 13.681452990607449 0 0 0
213 1 6.856282052309151 15.14088065845665 15.040153553911516 0 0 0
338 1 10.911931452574892 13.874498454166172 13.780605242801686 0 0 0
341 1 12.35215831108941 15.140345030329263 15.018490879841528 0 0 0
466 1 16.339314679067655 13.728838810915567 13.54968013818443 0 0 0
469 1 17.59183689145695 14.911602288035377 15.032079531337217 0 0 0
82 1 0.19163380114270437 13.484588614301137 13.811519686259611 0 0 0
120 1 2.751520497921755 16.30211311438257 13.626020627183433 0 0 0
115 1 4.0633633693046525 17.82113080366296 14.96887905913527 0 0 0
248 1 8.322509620473488 16.388695961753328 13.504228083700232 0 0 0
243 1 9.50995073581653 17.551671714426213 14.924231798334695 0 0 0
371 1 15.023723689320086 17.61831024355118 15.032429492449767 0 0 0
376 1 13.551600138357259 16.391971655434887 13.629732862801715 0 0 0
504 1 19.07379152444767 16.283382510953377 13.731697917855577 0 0 0
499 1 20.44120855467038 17.7684756991749 14.909697959382832 0 0 0
117 1 1.3520316489204016 20.55430376181214 14.900331265429061 0 0 0
114 1 0.2762993098235548 19.02842624918817 13.552200068348483 0 0 0
242 1 5.597698756687792 19.082652812038084 13.600390079047651 0 0 0
245 1 6.890325775628725 20.36594159716234 15.108545961216691 0 0 0
370 1 10.96580704362759 18.975798127633578 13.683304552010139 0 0 0
373 1 12.273307279341555 20.420838427312972 14.94778232859551 0 0 0
280 1 13.752487270299175 0.12388317851375973 13.340145127290297 0 0 0
498 1 16.57468570345577 19.0133213428542 13.651482941892654 0 0 0
501 1 17.66577029265166 20.474197012694333 15.02789292555094 0 0 0
497 1 20.256515302267445 20.28702495788128 12.298452371703036 0 0 0
31 1 1.390717831135979 1.441281643632139 17.419494728822738 0 0 0
30 1 2.8257919318019953 2.89676532624096 16.330205925739694 0 0 0
28 1 0.004467590495556303 21.670335447406003 16.23853226829837 0 -1 0
156 1 5.487118917173087 0.0327161111483534 16.341590591782754 0 0 0
159 1 6.927429658469894 1.3857298398052167 17.739293664061442 0 0 0
158 1 8.00508215235256 2.920406060210696 16.160816301706955 0 0 0
287 1 12.242678463390385 1.4470663756919009 17.561980751413387 0 0 0
284 1 10.94598706362246 0.08420085571947666 16.15488913343268 0 0 0
286 1 13.553597178023617 2.7787216817783595 16.26624903463248 0 0 0
415 1 17.550569631595952 1.3690412997994459 17.80922845555046 0 0 0
412 1 16.084470366151905 0.05959981672209125 16.30838391397837 0 0 0
414 1 19.109052947918418 2.564645752384371 16.3706134473371 0 0 0
60 1 0.057115851878926094 5.561453916003322 16.39921114380851 0 0 0
25 1 4.2025756283092255 4.345095535273556 17.799783804806765 0 0 0
188 1 5.669229590040733 5.736016794399168 16.306495463183047 0 0 0
153 1 9.521084611791375 4.30680306274942 17.500393252224377 0 0 0
316 1 10.951266506600403 5.57142343357551 16.02625164760455 0 0 0
281 1 14.944953216714131 4.176546947320212 17.656420501048217 0 0 0
444 1 16.358203425013816 5.290740036224881 16.156704022519087 0 0 0
409 1 20.597902264412603 3.8281968792397376 17.638413728784144 0 0 0
63 1 1.4434756129176747 6.700754139067846 17.70728201529682 0 0 0
62 1 2.718863396570554 8.290226215292229 16.17936027021614 0 0 0
190 1 8.387171141622446 8.196527762196016 16.01373136525394 0 0 0
191 1 6.966926990304705 7.116475709787268 17.46199615016511 0 0 0
319 1 12.02936086569717 6.807987512586972 17.45748428028199 0 0 0
318 1 13.637578921485117 8.196414975541117 16.328600438407 0 0 0
447 1 17.690925596874354 6.587693250604852 17.658468060825772 0 0 0
446 1 18.958023219039042 8.201826063795664 16.43606453017386 0 0 0
95 1 1.4506785977643823 12.250279241809343 17.397094747588692 0 0 0
57 1 4.1402880135455815 9.57925409759616 17.42413264686123 0 0 0
220 1 5.511051366846143 10.960603073004236 16.175583936864772 0 0 0
223 1 7.00835105893993 12.24892578863358 17.686922510523633 0 0 0
185 1 9.576786546179855 9.590577669024858 17.4785899383684 0 0 0
348 1 11.003793241451431 11.0890936975995 16.17698626231901 0 0 0
351 1 12.303360016710387 12.278168198706426 17.906494353663405 0 0 0
313 1 15.182516557185279 9.56671883830103 17.682152747146553 0 0 0
476 1 16.27902652011748 10.84765226758536 16.203924410460903 0 0 0
479 1 17.7311760000118 12.11043790300807 17.915060129643546 0 0 0
92 1 21.786063067504085 10.884464949546944 16.288221587647683 -1 0 0
441 1 20.547069899588152 9.433098267330708 17.674840580248002 0 0 0
94 1 2.7653185481164337 13.524196109423434 16.004886324946497 0 0 0
89 1 4.077834553174978 14.9861411721349 17.61558603766363 0 0 0
222 1 8.29980534267164 13.82813455776554 16.518009338826833 0 0 0
217 1 9.74710925382083 15.09809150007373 17.897757956078117 0 0 0
350 1 13.700129280112964 13.680782209954833 16.333265854306568 0 0 0
345 1 15.251791615936341 14.837845688428205 17.705164653609152 0 0 0
478 1 18.980499363156653 13.53767365071317 16.3557116175098 0 0 0
473 1 20.308516700784615 14.962617813178102 17.624138868094462 0 0 0
127 1 1.5000112988402368 17.66545683696815 17.604714594322903 0 0 0
252 1 5.492941297240561 16.547633884962252 16.420494311384072 0 0 0
255 1 6.8529148011145615 17.845552327869108 17.695305911462782 0 0 0
380 1 11.045201977718195 16.401116742629974 16.404113324814936 0 0 0
383 1 12.645551417099563 17.653715507057495 17.767827868941968 0 0 0
508 1 16.32205738339245 16.32031938648763 16.43250101825977 0 0 0
511 1 17.489852560529723 17.793890815607064 17.806995471462457 0 0 0
124 1 0.12878604526187942 16.471158328513283 16.304730268723947 0 0 0
126 1 2.695021784156896 19.218955122269236 16.1959808005237 0 0 0
121 1 4.268958164517121 20.386023770278808 17.666775037719347 0 0 0
254 1 8.294024153187982 19.09390748594182 16.348730616672416 0 0 0
249 1 9.782669421682234 20.420033069561896 17.603633838065907 0 0 0
382 1 13.695215520070521 19.107090619960236 16.29173798780602 0 0 0
377 1 14.78136130450584 20.520602394860138 17.701540601955294 0 0 0
510 1 19.022026087203113 18.976356635711273 16.484201225893468 0 0 0
505 1 20.142065660799148 20.406658410711103 17.767324837105736 0 0 0
26 1 0.273306484345774 2.4422882144944906 19.060086414468152 0 0 0
32 1 2.621599418183546 0.1305628065950195 18.939137167821436 0 0 0