LAMMPS (10 Sep 2025)
OMP_NUM_THREADS environment is not set. Defaulting to 1 thread.
  using 1 OpenMP thread(s) per MPI task
Loaded 1 plugins from C:\Users\lmike\AppData\Local\LAMMPS 64-bit 10Sep2025 with GUI\plugins
# LAMMPS input generated from LammpsInputFile with pymatgen v2025.10.7

# STYLES
units metal
atom_style atomic

# SET UP CALCULATION
read_data starting_config.dat
Reading data file ...
  orthogonal box = (0 0 0) to (21.790885 21.790885 21.790885)
  1 by 1 by 1 MPI processor grid
  reading atoms ...
  517 atoms
  read_data CPU = 0.003 seconds
pair_style sw
pair_coeff * * Si.sw Si
Reading sw potential file Si.sw with DATE: 2007-06-11
velocity all create 1100 6777162

# CALCULATION PARAMETERS
fix f1 all nvt temp 1100.0 1100.0 $(100.0*dt)
fix f1 all nvt temp 1100.0 1100.0 0.10000000000000000555
thermo 100000
thermo_style custom step temp press spcpu cpuremain

# RUN CALC AND WRITE OUTPUTS
dump d1 all custom 100 state_dump id type x y z vx vy vz
run 10000000
Neighbor list info ...
  update: every = 1 steps, delay = 0 steps, check = yes
  max neighbors/atom: 2000, page size: 100000
  master list distance cutoff = 5.77118
  ghost atom cutoff = 5.77118
  binsize = 2.88559, bins = 8 8 8
  1 neighbor lists, perpetual/occasional/extra = 1 0 0
  (1) pair sw, perpetual
      attributes: full, newton on
      pair build: full/bin/atomonly
      stencil: full/bin/3d
      bin: standard
Per MPI rank memory allocation (min/avg/max) = 3.12 | 3.12 | 3.12 Mbytes
   Step          Temp          Press          S/CPU         CPULeft    
         0   1100           40890.663      0              0            
    100000   1144.8269      11695.934      561.09568      17644.05     
    200000   1100.7277      9146.7406      404.59843      20843.687    
    300000   1119.5317      12159.911      393.92281      21962.035    
    400000   1127.9342      8887.2048      439.0973       21767.476    
    500000   1131.6205      11366.956      494.35384      21075.986    
    600000   1115.8542      10818.549      490.9755       20569.371    
    700000   1139.2805      9901.0389      504.7922       20075.244    
    800000   1114.8808      13141.9        494.80108      19701.125    
    900000   1172.4117      8936.3706      493.00143      19372.692    
   1000000   1102.366       10143.042      499.43626      19045.856    
   1100000   1118.2804      12980.961      504.86281      18724.628    
   1200000   1088.0512      9548.7257      501.89523      18432.514    
   1300000   1103.5131      8976.8564      493.64051      18176.985    
   1400000   1100.7933      11549.457      489.99771      17938.272    
   1500000   1148.6333      11194.981      501.76118      17677.063    
   1600000   1060.9769      10123.373      488.47159      17452.06     
   1700000   1127.9057      11202.734      512.05477      17183.41     
   1800000   1133.8247      11566.195      489.426        16964.044    
   1900000   1133.1842      9534.8296      505.72535      16718.188    
   2000000   1101.9872      9264.4932      511.87964      16467.635    
   2100000   1118.2633      9756.9816      496.27738      16245.443    
   2200000   967.11855      9419.1999      497.68471      16023.112    
   2300000   1106.3255      10330.889      479.76119      15827.773    
   2400000   1047.83        9664.5903      501.3723       15602.892    
   2500000   1095.8243      10725.955      493.34286      15389.783    
   2600000   1129.8214      10120.828      477.71952      15196.343    
   2700000   1032.045       10516.275      506.06115      14970.03     
   2800000   1084.8559      11452.598      495.11343      14757.002    
   2900000   1004.04        10618.297      498.25028      14541.624    
   3000000   1066.618       10297.328      506.05122      14320.005    
   3100000   1116.089       9543.0633      513.63262      14093.443    
   3200000   1093.9214      11417.664      508.67941      13872.901    
   3300000   1034.2408      10821.766      493.59032      13666.013    
   3400000   1065.9356      10738.077      498.35714      13455.615    
   3500000   1167.1737      11906.553      506.90878      13239.487    
   3600000   1206.4232      9926.4596      476.21417      13047.012    
   3700000   1055.6391      13130.606      503.3585       12834.309    
   3800000   1066.2381      10030.139      503.27415      12622.398    
   3900000   1090.1181      14836.442      485.32895      12422.657    
   4000000   1148.5769      9759.1556      495.18714      12216.448    
   4100000   1087.1186      7727.7071      506.98349      12003.685    
   4200000   1105.6568      11461.788      493.97194      11798.835    
   4300000   1116.8732      13493.184      490.31054      11596.102    
   4400000   1160.1483      11295.751      489.20608      11393.899    
   4500000   1093.2467      11562.81       507.54345      11182.572    
   4600000   1165.9096      12753.044      492.43141      10978.964    
   4700000   1017.9044      9481.1944      495.43307      10773.992    
   4800000   1155.454       10645.128      495.41946      10569.156    
   4900000   1080.8231      10836.09       486.11981      10368.46     
   5000000   1101.5436      11500.014      492.68598      10164.823    
   5100000   1081.6826      10377.912      484.31001      9964.5848    
   5200000   1103.517       9997.3954      494.03628      9760.354     
   5300000   1068.2779      10590.284      509.9395       9550.5937    
   5400000   1074.9188      11160.75       483.69693      9350.4025    
   5500000   1136.0147      10436.582      490.24356      9147.7143    
   5600000   1077.6958      10717.819      507.33942      8939.5794    
   5700000   1066.3561      10812.562      501.5928       8733.5349    
   5800000   1131.0025      11027.984      477.87267      8534.8867    
   5900000   1142.2386      11852.611      488.2971       8332.7743    
   6000000   1102.9628      11686.341      505.29612      8125.9795    
   6100000   1099.4348      10937.949      484.97529      7924.7778    
   6200000   1104.4717      10252.942      489.76577      7722.1789    
   6300000   1067.359       9849.1155      498.25221      7517.4874    
   6400000   1049.4619      11046.743      498.54306      7312.8547    
   6500000   1063.8499      14195.409      481.32206      7112.2109    
   6600000   1106.9822      8297.164       502.15973      6906.9102    
   6700000   1169.2841      11074.084      501.95879      6701.8326    
   6800000   1082.2875      11188.972      483.23208      6500.5604    
   6900000   1141.216       7734.1738      486.39446      6298.5195    
   7000000   1147.3482      13387.762      506.9402       6092.806     
   7100000   1108.4403      9724.0927      496.11829      5889.0881    
   7200000   1072.3983      11968.572      502.60276      5684.4186    
   7300000   1120.6967      10626.212      501.70115      5480.0377    
   7400000   1101.4635      10427.507      504.35965      5275.4244    
   7500000   1141.1311      12957.915      501.7475       5071.3243    
   7600000   1115.2822      10298.511      491.71839      4868.6341    
   7700000   1117.5372      12739.521      490.86698      4666.0317    
   7800000   1025.6841      9716.7725      493.89878      4463.0478    
   7900000   1084.85        8950.584       487.6632       4260.7652    
   8000000   1100.2807      8402.4583      490.43423      4058.1234    
   8100000   1044.123       11013.917      496.36543      3854.8791    
   8200000   1098.9168      11339.51       489.55705      3652.2932    
   8300000   1134.8898      14068.983      488.00762      3449.7996    
   8400000   1086.5536      8542.3737      497.15141      3246.5305    
   8500000   1099.8615      10721.939      515.98759      3042.0156    
   8600000   1072.6839      8218.044       504.00499      2838.4999    
   8700000   1190.5975      12004.022      509.79213      2634.7649    
   8800000   1027.7196      12009.61       491.75066      2432.1835    
   8900000   1080.0636      10623.558      510.53534      2228.66      
   9000000   1126.9232      11868.253      510.24528      2025.3188    
   9100000   1072.8853      8762.7816      524.41486      1821.6157    
   9200000   1135.2235      10585.378      527.85978      1618.0872    
   9300000   1059.0273      10543.575      557.09         1414.1134    
   9400000   1130.5271      12899.168      551.85731      1210.7689    
   9500000   1086.1115      10380.868      563.75682      1007.6892    
   9600000   1085.3112      10445.458      556.87755      805.23613    
   9700000   1038.4821      11173.209      594.53377      602.90308    
   9800000   1091.0395      11909.933      584.2872       401.32683    
   9900000   1049.757       9983.8395      648.40802      200.19433    
  10000000   1079.001       10839.59       684.10218      0            
Loop time of 19965.4 on 1 procs for 10000000 steps with 517 atoms

Performance: 43.275 ns/day, 0.555 hours/ns, 500.866 timesteps/s, 258.948 katom-step/s
99.5% CPU use with 1 MPI tasks x 1 OpenMP threads

MPI task timing breakdown:
Section |  min time  |  avg time  |  max time  |%varavg| %total
---------------------------------------------------------------
Pair    | 19649      | 19649      | 19649      |   0.0 | 98.41
Neigh   | 37.091     | 37.091     | 37.091     |   0.0 |  0.19
Comm    | 44.726     | 44.726     | 44.726     |   0.0 |  0.22
Output  | 152.67     | 152.67     | 152.67     |   0.0 |  0.76
Modify  | 64.913     | 64.913     | 64.913     |   0.0 |  0.33
Other   |            | 17.38      |            |       |  0.09

Nlocal:            517 ave         517 max         517 min
Histogram: 1 0 0 0 0 0 0 0 0 0
Nghost:           1461 ave        1461 max        1461 min
Histogram: 1 0 0 0 0 0 0 0 0 0
Neighs:              0 ave           0 max           0 min
Histogram: 1 0 0 0 0 0 0 0 0 0
FullNghs:        18620 ave       18620 max       18620 min
Histogram: 1 0 0 0 0 0 0 0 0 0

Total # of neighbors = 18620
Ave neighs/atom = 36.015474
Neighbor list builds = 48383
Dangerous builds = 0
write_data FINAL_STRUCTURE
System init for write_data ...
Total wall time: 5:32:45
