LAMMPS data file via write_data, version 10 Sep 2025, timestep = 10000000, units = metal

522 atoms
1 atom types

0 21.790885 xlo xhi
0 21.790885 ylo yhi
0 21.790885 zlo zhi

Masses

1 28.085

Atoms # atomic

7 1 1.4967705797800466 1.668748347293309 1.5394792233995733 0 0 0
6 1 2.840063504779139 2.945003325130471 0.33226683257239015 0 0 0
8 1 2.9230284757338985 0.5239887762425022 3.0222423997948957 0 0 0
4 1 0.2818898522556337 0.08233901803984893 0.11121550496377194 0 0 0
132 1 5.45099930903188 0.26273087936697564 0.1266915740239026 0 0 0
130 1 5.650959836055408 3.078570278188734 2.98074646899845 0 0 0
135 1 6.756356790007225 1.3761586991748154 1.6586794650126004 0 0 0
134 1 8.123528670776649 3.089076458635725 0.5505667445898992 0 0 0
136 1 8.315598378880344 0.2387194000263007 3.0647334750693696 0 0 0
260 1 10.940703674310962 0.344237321471709 0.41755547114569236 0 0 0
258 1 11.223516560893255 2.813410590774333 3.054547025550684 0 0 0
263 1 12.467497250532066 1.6389664039252068 1.6543541184885926 0 0 0
264 1 13.8287021058618 0.2500022173390153 3.2374985469622297 0 0 0
391 1 17.90537455770859 1.5994469877559012 1.519048670952504 0 0 0
388 1 16.54627528028506 0.3772852750049223 0.2041434341715774 0 0 0
386 1 16.426812081999497 3.120897295393141 3.012202508404803 0 0 0
390 1 19.347678418363763 2.9736114459234475 0.36757759671218015 0 0 0
392 1 19.398614842376034 0.09177580711772373 2.896136192709698 0 0 0
36 1 0.4189465748468166 5.679173974030053 0.21499747422445623 0 0 0
513 1 3.02805553535353 5.6705809164236 2.824454710413875 0 0 0
1 1 4.287361220327384 4.335411408786116 1.593954128282113 0 0 0
195 1 5.506899791492954 5.6527795091282185 0.3346762633419373 0 0 0
176 1 8.520918711816583 5.740600850310434 3.0131561535155345 0 0 0
514 1 9.767150649266165 4.283734379514034 1.754688157639197 0 0 0
292 1 10.892135277377298 5.619433202665827 0.24860315416694814 0 0 0
521 1 14.951500764619608 4.211631621043703 1.6034092776222504 0 0 0
257 1 13.548686022991589 5.572481489032448 2.8477541860492854 0 0 0
420 1 16.387270045398708 5.687358001462599 0.39888696103941207 0 0 0
385 1 20.68295239948618 4.416999244671668 1.5748081168730317 0 0 0
424 1 19.183515546241274 5.711718465835484 2.9606221148494276 0 0 0
39 1 1.7777528317700182 6.98793518090475 1.5027599415433823 0 0 0
34 1 0.3638327029056049 8.124466195717016 3.0222465941255097 0 0 0
61 1 3.0712712433655116 8.193646873193877 0.2715891569556498 0 0 1
207 1 5.66563991171049 8.30867523177181 3.1105412994128763 0 0 0
189 1 6.9762554546205795 6.776081515553486 1.7467424312637314 0 0 1
515 1 8.170297246964129 8.374852230109543 0.3183721936239694 0 0 0
40 1 10.848686178464675 8.450375829919219 2.8496420483267135 0 0 0
295 1 12.168743912679863 6.960831375488938 1.4464142717308517 0 0 0
294 1 13.831412883793325 8.07007390525175 0.4731194524933106 0 0 0
423 1 17.811358669991996 6.921533931195948 1.771163405959785 0 0 0
418 1 16.460376933768362 8.353535885233423 3.003590258485344 0 0 0
422 1 19.2046665629408 8.420594028097968 0.6661084219803732 0 0 0
152 1 0.4545130405924522 10.878142760565677 0.717936997140466 0 -1 1
67 1 2.9724769181606856 11.046833055646532 3.287267897830723 0 0 0
296 1 4.198348887388688 9.59934252445484 1.7015594056313967 0 0 0
204 1 5.343690757108587 11.275790891959586 0.45895810452738084 0 0 0
163 1 9.550239097408618 9.732034557723281 1.4677681794387762 0 0 0
168 1 10.901360018522887 10.981128054879848 0.2681304084220644 0 0 0
327 1 12.168353957000859 12.245567868835067 1.7309200611029532 0 0 0
289 1 15.033185016824866 9.631032552682425 1.774449111552001 0 0 0
328 1 13.706698471333187 11.036744344064031 3.0272289977516866 0 0 0
452 1 16.46624451322904 11.14310701293803 0.625214067617998 0 0 0
455 1 18.047352771373927 12.382097137127792 1.56064412801364 0 0 0
417 1 20.67528030629816 9.686643426679444 2.0186861212799028 0 0 0
456 1 19.352249898779434 11.30915195952892 3.0472163163113715 0 0 0
38 1 1.6649166154309911 12.410651160575398 1.904650006902827 0 0 0
66 1 0.4467392454320511 13.971636039899094 3.01741958432652 0 0 0
46 1 2.902243234411748 13.680111073910147 0.1897154391714134 0 0 0
522 1 4.3131155846792 15.145953318502706 1.6319469926444492 0 0 0
200 1 6.8781632510568045 12.594403122824312 1.5992157480824603 0 0 0
219 1 8.223278184961268 13.822917802123246 21.705924762745283 0 0 0
198 1 9.71092764027863 15.206088970683426 1.4438452195219582 0 0 0
326 1 13.791682931898366 13.71956852711907 0.2611469495803897 0 0 0
321 1 15.055671388812126 15.09076130736215 1.6433783829076083 0 0 0
450 1 16.55341622185358 13.750243364197557 2.8138367004752336 0 0 0
449 1 20.880827236274328 15.386691646635215 1.6793524650737368 0 0 0
454 1 19.14807804711989 14.048356943604881 0.535075083298256 0 0 0
103 1 1.724889431857381 17.918156502133538 1.6580391457142847 0 0 0
104 1 3.2746651031457867 16.756794912212605 2.7696553348779007 0 0 0
228 1 5.273647416403692 16.635237655625428 0.04192044197104028 0 0 0
231 1 6.802730010353542 18.086924479991527 1.5404711167983167 0 0 0
232 1 8.434628418091739 16.607249542115436 2.7320033648186035 0 0 0
356 1 11.304913883902936 16.594681898740646 0.23195551349630833 0 0 0
359 1 12.403542880389248 18.04937052469557 1.8021679841975462 0 0 0
360 1 13.69210119733417 16.654362107552725 2.959314525007467 0 0 0
487 1 17.913791830434896 17.767282213671166 1.5758150912899116 0 0 0
484 1 16.44813362869842 16.44999223036367 0.3708271072551497 0 0 0
100 1 0.2135925897315236 16.587355114485767 0.2086796398959319 0 0 0
102 1 2.7775679823524517 19.51061704453848 0.1876332990937303 0 0 0
98 1 0.20331084962327575 19.376612289008946 3.0404323611662143 0 0 0
97 1 4.122099782873141 20.892571309802605 1.5509912653746556 0 0 0
230 1 8.134352685131885 19.33275933520719 0.10865970273323627 0 0 0
225 1 9.65659685858308 20.429270900550893 1.6134813566646498 0 0 0
354 1 10.998994280338309 19.28232371826934 2.9354886482300113 0 0 0
353 1 15.189950818609146 20.824655149961036 1.602337694518002 0 0 0
358 1 13.715087134383996 19.379670434553194 0.36808661226095446 0 0 0
481 1 20.778140807261973 20.39657744979877 1.3502355726541995 0 0 0
486 1 19.13129135754327 19.208882167348424 0.29359916422730764 0 0 0
2 1 0.19093957518279753 3.133333082267235 3.0331591503768336 0 0 0
516 1 2.983392383315699 3.1673481074887215 5.7639640707035324 0 0 0
3 1 4.25423896192076 1.9020919142981683 4.289143484264666 0 0 0
140 1 5.583065277103245 0.543107486472148 5.776540964473396 0 0 0
172 1 8.372603859243023 2.949449478392599 5.7988563975169 0 0 0
131 1 9.735056613962318 1.524214743616764 4.43046380782886 0 0 0
268 1 11.052745313699962 0.08300005990590707 5.742626989401033 0 0 0
259 1 15.094673442807762 1.8217033686687967 4.499638274045036 0 0 0
270 1 13.655149758355629 2.982800621262013 5.730353723051955 0 0 0
396 1 16.678904254437477 0.5199496099433651 5.734262593469784 0 0 0
12 1 0.2320805743972669 0.4520492829558591 5.590880479610327 0 0 0
387 1 20.73307554613055 1.6755425259738799 4.1080285254204485 0 0 0
398 1 19.48676682640034 2.932963450705642 5.653438069180014 0 0 0
5 1 1.6832181462103248 4.528563235206043 4.245161902088406 0 0 0
44 1 0.3118334704375837 5.509569459166891 5.873683427330104 0 0 0
9 1 5.838905250698868 5.618833472334129 5.68616541785061 0 0 0
519 1 7.033178027316308 4.245783322845161 4.349776084096912 0 0 0
290 1 10.958944728190582 5.570989018544935 5.61812597364344 0 0 0
261 1 12.455101521555328 4.324887301990098 4.37478689897617 0 0 0
389 1 17.91576502140214 4.41339830727928 4.359266399053074 0 0 0
428 1 16.450803095441515 5.639022567931899 5.848361842034825 0 0 0
35 1 3.0435323318200957 8.139413977507006 5.827568693011009 0 0 0
142 1 4.395758615344798 6.987998210724107 4.390419813269856 0 0 0
162 1 8.419504939410709 8.406878100416321 5.8205448558000015 0 0 0
174 1 9.74770815257152 7.101505398195596 4.392086938482608 0 0 0
291 1 15.04704522880695 7.038890304885505 4.402640253844012 0 0 0
302 1 13.594354993480106 8.380882280357355 5.458439706734902 0 0 0
430 1 19.321011287648563 8.277421417585728 5.518851062885911 0 0 0
419 1 20.676552077669683 6.756942503575871 4.506744310177712 0 0 0
37 1 1.6554760645013993 9.55951073004749 4.585429741787064 0 0 0
76 1 0.3156493059828637 11.366890059441376 5.780134535040145 0 0 0
194 1 5.7977089997738265 10.989284370502366 5.69708939079862 0 0 0
165 1 4.495032069777212 12.531742612708072 4.4461607644505925 0 0 0
332 1 8.380983667463388 11.28096663750011 3.061433831016499 0 0 0
175 1 7.175503462885985 9.717931098082591 4.328492875482836 0 0 0
161 1 10.949196223779621 11.300291232821465 5.5608954539173725 0 0 0
322 1 9.698414208126772 12.703393988229486 4.260014941807759 0 0 0
133 1 12.219985185143047 9.842869276986887 4.19402989044638 0 0 0
323 1 15.048311876187872 12.44785455917021 4.234809148481222 0 0 0
421 1 17.86165313119359 9.89759757452281 4.23916884701982 0 0 0
460 1 16.3979591607712 11.15292750029433 5.666041188841294 0 0 0
451 1 20.93609228539723 12.742924139766068 4.392697384524035 0 0 0
69 1 1.8101681080378256 15.67309825567022 4.30631883863432 0 0 0
78 1 2.9885572156041524 14.018621226306312 5.3870892879534615 0 0 0
517 1 5.633412341624971 13.92093682466278 3.173071337084886 0 0 0
201 1 8.36978098716587 14.037267041909585 5.6819809122535565 0 0 0
197 1 7.091972883681858 15.311556478202935 4.267965278338818 0 0 0
193 1 10.969371478120655 13.901595305849144 2.86254014526625 0 0 0
325 1 12.235904817819181 15.408121928785919 4.2823802744950035 0 0 0
334 1 13.878634687000657 14.240752123142062 5.403227884747562 0 0 0
453 1 18.07217318180777 15.431103736287845 4.238033608655518 0 0 0
462 1 19.25430018580146 13.863065840871316 5.186330704934622 0 0 0
99 1 4.234085107207465 18.11023616580768 4.3003150059954685 0 0 0
236 1 5.534075123273943 16.639710925504893 5.7146637354400065 0 0 0
227 1 9.786872618440006 17.93120730726578 4.306698210416731 0 0 0
364 1 11.029928757631348 16.675764123127628 5.756748727417716 0 0 0
355 1 15.023511239657086 17.89013581996456 4.353648536674004 0 0 0
492 1 16.54923498235574 16.674678274058298 5.5013873208241675 0 0 0
108 1 0.2957490560691302 16.960430504550015 5.607627864956931 0 0 0
488 1 19.37418845459014 16.77552776894948 2.969177402532547 0 0 0
483 1 20.473137515575516 18.33827779578155 4.4928163332970525 0 0 0
101 1 1.5875966669795007 21.029860532142454 4.173407656234324 0 0 0
110 1 2.943417647163944 19.60441356104191 5.612292652678695 0 0 0
226 1 5.589251396203713 19.595922821128923 2.887803623322498 0 0 0
238 1 8.434430096946961 19.305749660321688 5.832175325703852 0 0 0
229 1 6.987481624006994 20.79067677304902 4.549684194253651 0 0 0
357 1 12.460517347124332 20.591378559620267 4.444099748452592 0 0 0
366 1 13.905508032452502 19.30055044713001 5.807138980814718 0 0 0
482 1 16.33110972185414 19.376650995514773 3.092423173083944 0 0 0
485 1 17.88128662794765 20.75952104884176 4.337302965363065 0 0 0
494 1 18.98011239447402 19.46926959652005 5.797569828098064 0 0 0
15 1 1.631487219362863 1.7968587768810487 6.991123518793513 0 0 0
16 1 3.0650993051589523 0.20823042174697953 8.472836737101195 0 0 0
10 1 0.1943561922218457 2.819105538333756 8.470596276993696 0 0 0
43 1 5.756032319939941 3.1263961704372383 8.531028396433697 0 0 0
143 1 6.867538316999194 1.6575414207193933 7.322945313179494 0 0 0
144 1 8.39729695103041 0.33382985851163305 8.545732308400073 0 0 0
271 1 12.343056719136058 1.660402055535502 7.066428336348754 0 0 0
272 1 13.83135838699306 0.38426458912502015 8.341277626095396 0 0 0
399 1 18.197321919416606 1.7852252541824933 7.1936116407255275 0 0 0
394 1 16.55286474345662 3.2613966642019157 8.274730372273163 0 0 0
400 1 19.459259337441996 0.21498684313496774 8.31441812961087 0 0 0
48 1 2.969545075774518 5.742830638058163 8.489854742001674 0 0 0
14 1 4.3641975930608705 4.421107384840177 7.061557962345891 0 0 0
53 1 8.607799222613274 5.875788151501903 8.369732738034827 0 0 0
266 1 11.114086548485153 2.8899956721799627 8.533180575890285 0 0 0
300 1 10.006521580310983 4.203262913720076 7.134842421031608 0 0 0
304 1 13.755696058491091 5.68285451215161 8.435262177947362 0 0 0
265 1 15.033077362939096 4.3631978294582465 6.98800787288859 0 0 0
393 1 20.679405476188 4.280767983580909 7.092055502070499 0 0 0
432 1 19.28157273240909 5.745228219408923 8.38714115363004 0 0 0
47 1 1.6980946137376467 6.96121868354929 7.078782301516871 0 0 0
42 1 0.343819703655516 8.354167964171872 8.41475418938423 0 0 0
58 1 5.896272362106668 8.508963969388356 8.60955832220359 0 0 0
170 1 7.097452810581818 7.061819158190715 7.101302586024329 0 0 0
298 1 11.150664572357526 8.584975928834861 8.176576419440995 0 0 0
169 1 12.262613256512607 6.912032078825853 6.952602136331502 0 0 0
431 1 17.874156676894714 7.1355528843757465 7.097911156265804 0 0 0
426 1 16.263318679643348 8.439405020347532 8.412609144019354 0 0 0
80 1 2.970977892679622 11.14024258373585 8.406532651475304 0 0 0
79 1 2.039321163982466 12.527109524553524 6.8559328458666675 0 0 0
520 1 4.234047988239024 9.630996491039037 7.108795752200579 0 0 0
208 1 8.439027310453456 11.356113005327089 8.508233864451032 0 0 0
167 1 9.750174403023408 10.065316161614033 6.918540365474809 0 0 0
336 1 13.463545821610232 11.42719724854291 8.165404662153128 0 0 0
297 1 14.886122291700234 9.909468964162144 6.925700595826177 0 0 0
335 1 12.29225433548709 12.915349687790805 6.829615139331336 0 0 0
331 1 15.17137070271149 12.702054369589712 9.295081634968994 0 0 0
463 1 17.922328909317386 12.5398109387508 6.81852979260026 0 0 0
425 1 20.766484054372654 9.654482560066375 6.866684400556657 0 0 0
464 1 19.40719182372629 11.089248156686704 8.218346408756238 0 0 0
459 1 21.264440463649503 12.206470526326802 9.258542123095891 0 0 0
74 1 0.41091863957779506 14.095035477104396 7.758432799132991 0 0 0
202 1 5.596678816342988 14.106960348290324 8.445872747386172 0 0 0
73 1 4.253635642612375 15.326487723790668 6.904879734082826 0 0 0
206 1 6.918572433348689 12.550759397130527 7.08595333215295 0 0 0
330 1 11.085331217272557 14.003387765193759 8.286237895378159 0 0 0
137 1 9.728830418544954 15.323366739403799 7.129249271643989 0 0 0
329 1 15.111504193239854 15.489837271225024 6.83163256076455 0 0 0
458 1 16.579584348906817 14.112864230325282 8.000140781682873 0 0 0
457 1 20.48290606864753 15.398192650171532 6.444495961668871 0 0 0
84 1 19.51965369659666 14.040417484235002 9.017186210346729 -1 0 0
111 1 1.6806453855222572 18.084153159615525 6.9018507295208735 0 0 0
112 1 3.0283296032515374 16.73341415660611 8.361317984463701 0 0 0
239 1 7.05832824848817 17.789942652469723 7.071374542025665 0 0 0
240 1 8.452023419257115 16.410092908394105 8.513109962233523 0 0 0
367 1 12.391950092173747 18.107571813196753 7.189613969699945 0 0 0
368 1 13.886843212487676 16.886081639804054 8.61166644813706 0 0 0
495 1 17.643603162688887 18.006585991299147 6.988605323421934 0 0 0
496 1 19.449614576181368 16.800720945591234 8.043259905252192 0 0 0
106 1 0.39235271268483446 19.631063920030797 7.947219104593972 0 0 0
234 1 5.797926736863995 19.34025843930544 8.50324449856366 0 0 0
105 1 4.3885536214725995 20.751465043160838 7.072734753265837 0 0 0
233 1 9.682339811964424 20.84834712855575 7.229165862312168 0 0 0
362 1 11.050160952556674 19.506259431506614 8.565180238396398 0 0 0
361 1 15.21052457606947 20.84317136239427 6.957376527076421 0 0 0
490 1 16.51922807404088 19.545962271920995 8.514553844833339 0 0 0
489 1 20.579585392948214 20.816998118158526 6.76232036973344 0 0 0
145 1 3.0449644574333954 3.0669988423305314 11.019206254619485 0 0 0
18 1 1.6105420321254478 1.8869207545764473 12.555223126532994 0 0 0
11 1 4.377093605924954 1.7789102315901495 9.59563233426697 0 0 0
148 1 5.499152685441151 0.339071065439035 11.109306211687125 0 0 0
56 1 8.317579406709692 3.1579909662647996 11.087831170029503 0 0 0
83 1 6.794380091013403 1.853182096091877 12.257603488596075 0 0 0
139 1 9.717316435242209 1.7625778837587522 9.888352040408586 0 0 0
276 1 11.179108780849726 0.19812692550497263 11.210398249221633 0 0 0
267 1 15.35061315554045 1.6908652000011335 9.648783132384148 0 0 0
278 1 13.934360380882918 2.8027253958329394 11.162479239454088 0 0 0
404 1 16.642508561910383 0.5031864902280638 11.157139215215924 0 0 0
20 1 0.3164498234616517 0.46899486635395127 11.063267468657116 0 0 0
395 1 20.526319450912315 1.65935172257085 9.767135541813758 0 0 0
406 1 19.073792086900408 3.0534793773444 11.25989217921705 0 0 0
13 1 1.5806264473688496 4.210779322838205 9.729346760335458 0 0 0
171 1 5.602086027693645 5.680476445316022 11.190340536447067 0 0 0
146 1 4.235491022270187 4.387341536086065 12.485019464673574 0 0 0
141 1 7.018542467648113 4.501302434019484 9.812094310061628 0 0 0
222 1 11.263985147641982 5.66255507736625 11.212415122908954 0 0 0
150 1 9.65104709568728 4.450721750359504 12.56459135112993 0 0 0
269 1 12.58818960946262 4.2086448497693665 9.859115601944753 0 0 0
273 1 15.25862457065396 4.319820986833711 12.492162876298258 0 0 0
397 1 17.871518503155933 4.340175080859951 9.55985528087428 0 0 0
436 1 16.578218424444273 5.609504631405178 11.047557585732246 0 0 0
52 1 0.09697177034106515 5.565763650883037 10.97095898057821 0 0 0
210 1 2.8411734133562083 8.36608836377947 11.039512346450994 0 0 0
41 1 4.470542763424413 7.16428556329365 9.914256474803304 0 0 0
22 1 8.568175640501492 8.219942876206725 11.226368130534503 0 0 0
55 1 10.02629738333141 7.073021621165805 9.815689478657418 0 0 0
299 1 15.031431229929504 7.080935814012705 9.847878704920674 0 0 0
310 1 13.632779377976776 8.335743889043188 11.065096379785071 0 0 0
438 1 19.335451207402137 8.336246606256417 11.065218293374846 0 0 0
427 1 20.769204823276304 7.136110776379929 9.754422564200622 0 0 0
45 1 1.573350986906344 9.843216543630248 9.654693557396328 0 0 0
178 1 0.3003275951634963 11.05238039404536 11.325604855495772 0 0 0
149 1 5.610089625504005 10.937526142817926 11.046445623801686 0 0 0
182 1 4.326960227265888 9.686978895926678 12.408011909482244 0 0 0
49 1 7.354152572074252 9.787145706259244 9.906043368598352 0 0 0
340 1 10.90541454225686 11.166733718109805 11.07783586891591 0 0 0
301 1 12.383485439276145 9.952823076003451 9.712956197549357 0 0 0
343 1 12.48567057836491 12.484661873992275 12.397748810064193 0 0 0
429 1 18.005405269071698 9.617907129068206 9.652905373836584 0 0 0
468 1 15.71782546504026 10.691187040401234 10.457124221563705 0 0 0
85 1 18.546891417858877 12.150835198952755 10.837177914438145 -1 0 0
433 1 20.56374177406921 9.538622950149234 12.528162726407809 0 0 0
465 1 1.4863925485281633 15.218547768279171 9.706433376736834 1 0 0
86 1 2.7725879205439963 13.862954770316493 11.02323463062467 0 0 0
75 1 4.245332140615378 12.59813081482782 9.65565255531774 0 0 0
214 1 8.079615577423228 13.81103316167603 11.335224073075521 0 0 0
205 1 6.996391479016451 15.249382957749797 9.874152026052604 0 0 0
203 1 9.723850746443752 12.8152201982414 9.891378137571225 0 0 0
333 1 12.422733863209663 15.451910024171294 9.566093782343671 0 0 0
209 1 9.708059547057172 15.25437050658861 12.527729927086428 0 0 0
342 1 13.853535660808948 13.907712428575477 10.883536612012149 0 0 0
466 1 16.99362755780416 14.225415925413671 10.93541442106304 0 0 0
124 1 20.997522713881057 14.6942989579715 10.951070675816487 -1 0 0
500 1 19.060559922067156 16.403649639434523 10.66922644888838 0 0 0
116 1 1.1361580034417802 17.49877765266602 10.467658948366632 0 0 0
107 1 4.358783829260326 17.838532062677007 9.750421401709037 0 0 0
81 1 5.710640230800319 16.61324053624018 11.010612209886311 0 0 0
248 1 7.000866950626336 18.045623280698994 12.315177383636318 0 0 0
235 1 9.751360842557721 17.7976213994035 9.76393336436067 0 0 0
372 1 11.207490784351139 16.52749414656142 11.386483236814101 0 0 0
337 1 14.484215973660795 16.17863008837064 11.845662238657852 0 0 0
363 1 15.516858332864386 18.14659588881441 10.242316121498636 0 0 0
461 1 17.05311723149331 16.31974848982647 9.230254896095502 0 0 0
503 1 17.35256050829213 18.135907542222917 11.954620834069006 0 0 0
491 1 20.881485261438634 18.545963749373783 9.340353822392526 0 0 0
109 1 1.5218284560103348 20.72720653504299 9.720605139016588 0 0 0
118 1 3.0369193689277165 19.44369505284702 10.810223961534463 0 0 0
237 1 6.91079569937852 20.831607001138106 9.848466591445186 0 0 0
246 1 8.480692994618385 19.40702087256609 10.928394914643432 0 0 0
365 1 12.55538254205754 20.712541014928206 9.652268625034234 0 0 0
374 1 13.78932440976462 19.436455467557117 11.173839102489682 0 0 0
493 1 18.03392818105892 20.816582375382488 9.881311777972321 0 0 0
502 1 19.626321066632027 19.44972940094199 11.125017932474579 0 0 0
179 1 2.8176250832695664 0.2922440369169714 14.031245145020586 0 0 0
21 1 0.007465702123010232 3.016266952687902 13.819249607704391 0 0 0
184 1 4.321392996076541 1.6541962334395932 15.323390179437705 0 0 0
121 1 8.128794843015669 0.4675744745059286 13.962214569681429 0 1 0
28 1 9.659801079798495 1.6535617475028213 15.38334304256685 0 0 0
279 1 12.349116779079871 1.5844155659788934 12.602657283420394 0 0 0
274 1 10.968303942640915 3.105953261696043 13.877363956062432 0 0 0
280 1 13.613635529957573 0.16286317023272306 13.768365539381762 0 0 0
275 1 14.89580520249395 1.670738233012691 15.165770962891543 0 0 0
407 1 17.870922327137713 1.7787144904738852 12.753847216454302 0 0 0
408 1 19.37978389484255 0.33590072795227116 14.073034867595325 0 0 0
19 1 20.721965996342412 1.7636057890465189 15.407665059802254 -1 0 0
30 1 1.4864317369373683 4.410054402020961 15.259713809303584 0 0 0
518 1 2.9360479082970277 5.668083782260799 13.84305612288915 0 0 0
223 1 5.632403959174061 3.2262392548229055 13.783822608117612 0 0 0
180 1 8.327548313642685 5.716130584607279 13.88159816437981 0 0 0
51 1 7.057325670923058 4.294391513500114 15.252310235347556 0 0 0
277 1 12.405520645175232 4.476799137716279 15.239971646056807 0 0 0
312 1 13.886553815349826 5.747668656991754 13.822548643702167 0 0 0
402 1 16.443561556334462 2.9543616234186465 13.933708130764517 0 0 0
405 1 17.896884008911663 4.436586967482783 15.220709728110412 0 0 0
401 1 20.40265639848069 4.472936171785343 12.444597892527264 0 0 0
440 1 19.27748961488418 5.761791956557799 13.927747734786152 0 0 0
54 1 1.390216369595804 7.025147044311156 12.31047263334534 0 0 0
50 1 0.20463789799866286 8.327689002082126 13.782987189923702 0 0 0
213 1 5.544438680170362 8.406289975745553 13.737312985082507 0 0 0
188 1 4.434753339752477 6.797386265230018 15.121843191711548 0 0 0
173 1 6.998104869060417 6.929199170371854 12.37055824958648 0 0 0
138 1 12.428842203619517 6.999078368903615 12.512702073233589 0 0 0
311 1 9.585463061881104 7.004720215693531 15.311023221771295 0 0 0
88 1 10.938595048994776 8.345466656890716 13.827408294710962 0 0 0
307 1 15.321258097017804 7.039482493604285 15.273476827280959 0 0 0
439 1 17.895272962167446 6.869759225359987 12.308942797437506 0 0 0
434 1 16.60616671515762 8.382378782683514 13.855221070650755 0 0 0
435 1 20.42953364758843 7.066974118383424 15.373163333213764 0 0 0
243 1 1.802254357074774 12.493845180134544 12.546358077156492 0 0 0
93 1 1.6145362747388528 9.644966084594275 15.196502514757182 0 0 0
218 1 3.0288618312665068 10.988282767040143 13.925522592286647 0 0 0
216 1 8.551274595757707 11.114434729330531 13.910084339000319 0 0 0
348 1 7.139778982510823 9.772843936050153 15.102658508871427 0 0 0
181 1 9.798775147239041 9.845423119525236 12.71726654687152 0 0 0
309 1 12.403511800356682 9.583286426380623 15.334321953153259 0 0 0
211 1 9.73440890786659 12.528435961478142 15.335664921914889 0 0 0
305 1 14.845778307189995 9.62001425817384 12.667856561903665 0 0 0
344 1 13.483099868183963 11.059445362303801 14.024331072702365 0 0 0
470 1 17.260301399777493 11.16621697384628 12.4382845339776 0 0 0
469 1 17.387695736511237 12.78729433771583 14.827903389288009 0 0 0
467 1 19.180512018955646 10.791650521937227 14.18501368591899 0 0 0
166 1 20.22221413651221 12.769791026181123 12.214834749925947 -1 0 -1
94 1 0.5620103081440865 13.712184123247349 14.104688140202187 0 0 0
504 1 0.3581151007375234 16.10653378520753 12.50820166490343 1 0 0
293 1 4.33486221733124 12.261904251343328 15.309114197811313 0 0 -1
87 1 4.227167124469479 15.333349150155017 12.408760835962958 0 0 0
255 1 5.6096256961496564 13.686855445367117 13.91006162675694 0 0 0
212 1 6.930464980678845 12.230686512673955 12.592265872388564 0 0 0
250 1 7.277247664017345 14.980275522838037 15.05554962358712 0 0 0
338 1 10.952246125205724 13.779598833515578 13.841077688064122 0 0 0
341 1 12.196640432716444 15.261373743394694 15.216050905160143 0 0 0
339 1 14.630538785580992 12.221775663548705 15.855491503321447 0 0 0
471 1 15.37032858453031 14.846889634884636 14.979148681074303 0 0 0
306 1 15.50511010105005 12.932838081234975 13.033143791796743 -1 -1 0
77 1 18.581000463025056 14.30896806205216 13.345221594081702 -1 0 0
473 1 20.625003412445896 12.583599672091015 15.317784132167231 0 0 0
115 1 1.9899006006848339 18.3912594171916 13.125181582628073 0 0 0
242 1 2.873355598316369 16.57287740529575 14.147462787547033 0 0 0
31 1 4.383964136477855 18.08755967952237 15.257145717533989 0 -1 0
303 1 8.264433135642683 16.745596895631184 13.66502614567059 0 0 -1
375 1 12.541606715649392 18.16678090063796 12.589608282859714 0 0 0
252 1 9.624432666529476 17.853888612954698 15.348956885752168 0 0 0
376 1 13.669731878041482 16.668923804151778 14.161838220794568 0 0 0
371 1 15.16792698249646 18.085991432720924 15.300870358248014 0 0 0
441 1 16.701217973690902 16.028068478182814 12.87949257993621 0 0 0
472 1 18.55318463524053 17.688266771900516 14.715360617117934 0 0 0
90 1 20.491661006384753 15.469428005919557 14.675631176876255 -1 0 0
215 1 20.208798305431205 17.59031576349842 12.758560632410516 -1 0 0
499 1 20.725532718707946 18.29539878830269 15.916006532117638 0 0 0
114 1 21.734339664473882 19.3357771859411 13.935927451512649 -1 0 0
126 1 1.2438801465749596 20.631216029441436 15.463838989957813 0 0 0
65 1 4.178603949940107 20.65763099845266 12.69857468271164 0 -1 -1
245 1 5.642606246363059 19.37817106884834 13.82219711846636 0 0 0
91 1 6.860374255383461 20.64267661724399 15.36130621945569 0 -1 0
241 1 9.56089418568685 20.884579764969793 12.774811259171827 0 0 0
370 1 11.091835937668195 19.30252048950807 14.045137523089313 0 0 0
373 1 12.314179621535668 20.817190092205777 15.506577365579972 0 0 0
369 1 15.2352698054236 20.7128720283215 12.485172934111654 0 0 0
498 1 16.53594601657465 19.497066011871237 14.046217911802193 0 0 0
501 1 17.85675328055547 20.858600209501247 15.557003786140069 0 0 0
497 1 20.776799436811185 20.99636690138238 12.681604518702292 0 0 0
32 1 1.600219932251922 1.7548128334159085 17.973860420539488 0 0 0
17 1 2.9466568203390797 3.0524618977923037 16.484605794540087 0 0 0
117 1 5.569825383939919 0.22152047518621112 16.602984649620865 0 1 0
185 1 7.0823459533195425 1.6803424711026183 17.878809565994874 0 0 0
403 1 8.427211565106823 3.0624043428679393 16.61469845692078 1 0 0
284 1 10.800168224643292 0.25745696020923164 16.79415844564221 0 0 0
287 1 12.251639719525379 1.5398744803895015 18.015307262179938 0 0 0
286 1 13.52183026172686 3.005645658299906 16.65939810335484 0 0 0
415 1 17.914122418436758 1.6295623193830266 18.036783309584933 0 0 0
412 1 16.384540142558564 0.4289375364303543 16.668559020923063 0 0 0
23 1 0.19569430955678857 0.3373914100052134 16.893028845473523 0 0 0
414 1 19.165564154130344 2.9785806058431525 16.764483605886745 0 0 0
60 1 0.05079797577283196 5.587095400265147 16.806044413828005 0 0 0
24 1 4.399859035766523 4.448219282789752 18.03749225510232 0 0 0
158 1 5.776234835613142 5.63392094425733 16.714977532125328 0 0 0
153 1 9.898876995507312 4.346824496970388 18.159765399003035 0 0 0
316 1 11.110853601814735 5.743386479279823 16.798246534973703 0 0 0
281 1 14.954605537886001 4.341772659893326 18.011780614426335 0 0 0
444 1 16.541011030478806 5.655246358519623 16.60968763507911 0 0 0
409 1 20.46320434371729 4.263654487354407 18.02993023117808 0 0 0
129 1 1.5846410508889057 7.0514774770204225 18.049892092231303 0 0 -1
220 1 2.944660144400255 8.104403523371161 16.47736347966672 0 0 0
57 1 8.345066050913166 8.41287769098513 16.68108249391309 0 0 0
224 1 7.2877594119043385 6.99859041326825 18.10470888352179 0 0 0
319 1 12.396622080995122 7.142699575928698 18.031398691736722 0 0 0
318 1 13.962448153632073 8.362930994934164 16.568415197170367 0 0 0
447 1 18.151973146977586 6.885505226746549 18.168570416582707 0 0 0
446 1 19.325580894831422 8.305523699385914 16.998291123871248 0 0 0
191 1 0.29136547981858263 11.071080937048086 16.72991890546854 0 -1 0
120 1 4.362818713313604 9.518698625631865 17.834565074886555 0 0 0
89 1 5.660697654677977 10.875496437364463 16.47721566642229 0 0 0
164 1 6.842136871104368 12.33877621475704 18.012402719688563 0 0 -1
190 1 9.75553650387842 9.688743913096207 18.121846855402737 0 0 0
70 1 11.210036220996551 10.93042712855808 16.634673072546217 0 0 -1
313 1 15.314043999282285 9.567498552954142 17.8264743977899 0 0 0
437 1 17.90283441227009 9.471180892950203 15.569159615793094 0 0 0
476 1 16.616076726437434 11.09934034541912 16.688984985494425 0 0 0
186 1 20.66703394057754 9.850984680619156 18.171073718867063 -1 0 0
68 1 1.7151559936943752 12.17292207345896 18.165623729589015 0 0 -1
247 1 1.764412991464473 15.232210294464519 15.508169516267278 0 0 0
25 1 3.082407943047793 13.763224770961713 16.848582738795464 0 0 0
128 1 4.296015312645267 15.127394153287703 18.15969067260581 0 0 0
196 1 8.371196362439862 13.756740542455747 16.725932576534092 0 0 -1
217 1 9.782377074845046 15.16857491349375 17.93910190202428 0 0 0
351 1 12.198734609079017 12.37949018492942 18.1406110912019 0 0 0
350 1 13.42593754758354 13.941124589143834 16.757879086365335 0 0 0