LAMMPS (10 Sep 2025)
OMP_NUM_THREADS environment is not set. Defaulting to 1 thread.
  using 1 OpenMP thread(s) per MPI task
Loaded 1 plugins from C:\Users\lmike\AppData\Local\LAMMPS 64-bit 10Sep2025 with GUI\plugins
# LAMMPS input generated from LammpsInputFile with pymatgen v2025.10.7

# STYLES
units metal
atom_style atomic

# SET UP CALCULATION
read_data starting_config.dat
Reading data file ...
  orthogonal box = (0 0 0) to (21.790885 21.790885 21.790885)
  1 by 1 by 1 MPI processor grid
  reading atoms ...
  522 atoms
  read_data CPU = 0.003 seconds
pair_style sw
pair_coeff * * Si.sw Si
Reading sw potential file Si.sw with DATE: 2007-06-11
velocity all create 1100 3674385

# CALCULATION PARAMETERS
fix f1 all nvt temp 1100.0 1100.0 $(100.0*dt)
fix f1 all nvt temp 1100.0 1100.0 0.10000000000000000555
thermo 100000
thermo_style custom step temp press spcpu cpuremain

# RUN CALC AND WRITE OUTPUTS
dump d1 all custom 100 state_dump id type x y z vx vy vz
run 10000000
Neighbor list info ...
  update: every = 1 steps, delay = 0 steps, check = yes
  max neighbors/atom: 2000, page size: 100000
  master list distance cutoff = 5.77118
  ghost atom cutoff = 5.77118
  binsize = 2.88559, bins = 8 8 8
  1 neighbor lists, perpetual/occasional/extra = 1 0 0
  (1) pair sw, perpetual
      attributes: full, newton on
      pair build: full/bin/atomonly
      stencil: full/bin/3d
      bin: standard
Per MPI rank memory allocation (min/avg/max) = 3.121 | 3.121 | 3.121 Mbytes
   Step          Temp          Press          S/CPU         CPULeft    
         0   1100           83965.689      0              0            
    100000   1097.2501      18292.588      409.27297      24189.235    
    200000   1115.6955      19222.723      460.98676      22601.822    
    300000   1104.1058      17655.917      546.74494      20827.915    
    400000   1074.9326      17192.201      439.51967      20920.402    
    500000   1079.1357      17735.951      454.93778      20738.38     
    600000   1081.0916      18694.393      451.17201      20572.506    
    700000   1063.2792      19142.621      459.15779      20339.481    
    800000   1108.411       18034.741      448.51633      20169.689    
    900000   1118.9214      15134.793      446.05536      20000.52     
   1000000   1166.8755      18347.73       442.7423       19835.446    
   1100000   1068.8839      18587.127      451.33196      19624.539    
   1200000   1122.8198      16934.91       449.17895      19419.644    
   1300000   1092.7138      17171.602      445.53462      19224.208    
   1400000   1067.7661      18442.128      455.13656      18995.539    
   1500000   1074.5368      19999.929      458.65925      18758.502    
   1600000   1073.1629      19694.088      455.27752      18532.343    
   1700000   1118.5333      20799.685      454.05386      18309.84     
   1800000   1116.3722      16888.5        446.85179      18103.76     
   1900000   1090.4499      18847.077      452.36841      17884.181    
   2000000   1059.1202      18991.105      440.22186      17688.852    
   2100000   1064.163       19071.148      457.34751      17458.493    
   2200000   1093.7119      19507.854      439.82245      17260.087    
   2300000   1106.7881      18044.123      440.01283      17058.834    
   2400000   1072.0313      18418.145      452.90226      16834.931    
   2500000   1134.4964      19181.054      454.01472      16609.653    
   2600000   1117.4989      18563.998      466.13205      16368.466    
   2700000   1172.9816      20274.764      450.34291      16149.589    
   2800000   1082.7009      19252.916      459.63652      15918.94     
   2900000   1151.3004      19684.304      447.08232      15704.15     
   3000000   1103.1802      17552.635      445.18035      15490.998    
   3100000   1092.3087      20943.352      446.39074      15275.75     
   3200000   1110.9392      22729.558      451.21008      15054.87     
   3300000   1125.374       20785.431      444.24981      14840.994    
   3400000   1149.8396      21335.414      454.49572      14616.607    
   3500000   1041.6815      20302.176      446.96545      14399.354    
   3600000   1033.1504      17837.954      436.0785       14191.671    
   3700000   1018.0411      17856.732      444.52918      13975.395    
   3800000   1061.8713      17982.275      449.78158      13754.377    
   3900000   1086.7064      20589.347      450.29698      13532.893    
   4000000   1117.8995      21175.775      440.84432      13318.523    
   4100000   1116.2197      17304.602      449.16859      13097.494    
   4200000   1056.1781      17297.097      457.91278      12870.519    
   4300000   1094.6786      18260.635      454.19946      12646.309    
   4400000   1142.0869      19425.333      462.00793      12417.548    
   4500000   1062.9086      15845.761      444.49782      12199.755    
   4600000   1046.0578      18560.85       445.50054      11981.056    
   4700000   1100.0288      17006.53       440.08954      11765.223    
   4800000   1117.1479      18370.334      439.41336      11549.294    
   4900000   1091.6801      17815.146      456.2655       11324.142    
   5000000   1113.5758      18647.692      450.29584      11102.134    
   5100000   1088.7806      19227.643      437.6741       10886.277    
   5200000   1150.249       20189.977      448.76987      10664.719    
   5300000   1166.7042      17839.948      451.92033      10441.736    
   5400000   1077.0569      20094.963      441.51845      10223.257    
   5500000   1058.2169      18793.054      441.46858      10004.508    
   5600000   1086.86        16367.328      448.94095      9782.5184    
   5700000   1163.0669      18085.978      439.28195      9564.1975    
   5800000   1069.5651      16930.65       442.41666      9344.387     
   5900000   1168.3744      18413.678      438.38439      9125.8104    
   6000000   1074.8485      18270.746      439.00592      8906.7008    
   6100000   1064.9112      19476.391      455.93032      8681.9006    
   6200000   1148.074       18734.968      455.01681      8457.5466    
   6300000   1119.7378      17761.646      439.2617       8237.9676    
   6400000   1026.3247      16725.318      447.51836      8015.7737    
   6500000   1123.3609      22639.275      454.27178      7791.7521    
   6600000   1017.3437      19716.842      462.03041      7565.9442    
   6700000   1094.2196      18435.203      458.42539      7341.2543    
   6800000   1101.0212      20623.154      437.73386      7121.6095    
   6900000   1146.9396      18413.934      441.50853      6900.832     
   7000000   1135.0696      16859.215      442.76857      6679.6148    
   7100000   1145.2969      18874.5        445.59333      6457.6823    
   7200000   1060.0186      19196.348      450.25641      6234.7769    
   7300000   1125.3243      19765.2        446.25342      6012.6305    
   7400000   1078.4936      18253.037      443.58625      5790.905     
   7500000   1063.8636      18993.151      440.28374      5569.6443    
   7600000   1145.646       18700.091      450.6103       5346.5855    
   7700000   1111.352       15572.725      454.90263      5122.9308    
   7800000   1154.5009      20560.204      461.00278      4898.5538    
   7900000   1079.6413      16581.906      465.58252      4673.7984    
   8000000   1127.792       18555.532      453.91562      4450.6725    
   8100000   1141.1792      19677.808      466.32455      4226.241     
   8200000   1091.3222      21235.036      458.41751      4002.8651    
   8300000   1137.7475      18800.236      475.17117      3778.0401    
   8400000   1112.2698      14796.445      492.79809      3552.1234    
   8500000   1070.2466      17908.669      491.2924       3326.8575    
   8600000   1077.3088      18033.927      491.59658      3102.0763    
   8700000   1106.3894      20167.009      520.60104      2876.0927    
   8800000   1065.3387      20942.49       529.66363      2650.4313    
   8900000   1160.4112      17452.135      561.71763      2424.2667    
   9000000   1023.4905      18543.092      632.14244      2196.9682    
   9100000   1095.6964      17100.328      648.53761      1970.793     
   9200000   1044.1685      20425.82       687.3571       1745.4254    
   9300000   1106.7174      18824.312      694.58861      1521.6616    
   9400000   1115.2632      23637.455      693.03166      1299.6163    
   9500000   1088.8802      18934.414      688.93289      1079.253     
   9600000   1151.7967      19842.889      687.72352      860.46727    
   9700000   1150.1326      18743.651      711.54292      643.04395    
   9800000   1038.4609      16856.973      709.40191      427.19833    
   9900000   1124.1569      21431.396      722.8719       212.83894    
  10000000   1138.8042      17633.655      748.26057      0            
Loop time of 21204.7 on 1 procs for 10000000 steps with 522 atoms

Performance: 40.746 ns/day, 0.589 hours/ns, 471.594 timesteps/s, 246.172 katom-step/s
99.5% CPU use with 1 MPI tasks x 1 OpenMP threads

MPI task timing breakdown:
Section |  min time  |  avg time  |  max time  |%varavg| %total
---------------------------------------------------------------
Pair    | 20873      | 20873      | 20873      |   0.0 | 98.44
Neigh   | 58.879     | 58.879     | 58.879     |   0.0 |  0.28
Comm    | 43.2       | 43.2       | 43.2       |   0.0 |  0.20
Output  | 147.52     | 147.52     | 147.52     |   0.0 |  0.70
Modify  | 64.894     | 64.894     | 64.894     |   0.0 |  0.31
Other   |            | 17.24      |            |       |  0.08

Nlocal:            522 ave         522 max         522 min
Histogram: 1 0 0 0 0 0 0 0 0 0
Nghost:           1422 ave        1422 max        1422 min
Histogram: 1 0 0 0 0 0 0 0 0 0
Neighs:              0 ave           0 max           0 min
Histogram: 1 0 0 0 0 0 0 0 0 0
FullNghs:        19116 ave       19116 max       19116 min
Histogram: 1 0 0 0 0 0 0 0 0 0

Total # of neighbors = 19116
Ave neighs/atom = 36.62069
Neighbor list builds = 77288
Dangerous builds = 0
write_data FINAL_STRUCTURE
System init for write_data ...
Total wall time: 5:53:24
