LAMMPS data file via write_data, version 10 Sep 2025, timestep = 10000000, units = metal

502 atoms
1 atom types

0 21.790885 xlo xhi
0 21.790885 ylo yhi
0 21.790885 zlo zhi

Masses

1 28.085

Atoms # atomic

3 1 1.009614033097232 1.6470928446485207 1.921191100493189 0 0 0
4 1 2.697324256742157 2.7183889191867765 0.5026818921234137 0 0 0
6 1 2.433799628735286 0.23165197208832014 3.1485891964926953 0 0 0
126 1 6.553432114141377 1.706691527513108 1.5704863111114782 0 0 0
220 1 7.884716156702337 21.641325058402145 2.684206730232244 0 0 0
124 1 10.633020611464623 2.7026301763671796 2.763171513273883 0 0 0
253 1 12.347834276422459 1.560333852862764 1.4439692678079945 0 0 0
376 1 17.741485110771624 1.4661535392493288 1.3575305301595453 0 0 0
388 1 16.33046715190928 2.555267273302161 2.6123935078860328 0 0 0
381 1 19.095246248810565 0.027392516552662727 2.749358437994904 0 0 0
380 1 19.159078891572186 2.6923031335166714 0.0289781220369992 0 0 0
27 1 0.09676806659443754 5.293161053365923 0.34561546056536296 0 0 1
127 1 4.7047662561555335 3.399936564336588 1.603453369106976 0 0 0
156 1 5.425178010824914 5.137390447113886 0.3208121552113914 0 0 0
155 1 7.738270324395588 5.3211870029035575 2.98442981930169 0 0 0
128 1 9.498970797276755 4.197126979731411 1.429843288081349 0 0 0
248 1 14.990534387908022 3.9007620209521807 1.2034831982520233 0 0 0
286 1 13.555295645369496 5.26462256887159 2.540509452245632 0 0 0
410 1 16.51442418167604 5.3652098778535064 21.76212813700632 0 0 -1
375 1 20.74722719264307 3.649616557111302 1.776778544503474 0 0 0
379 1 19.111479926871148 5.212889630427513 2.868961977103166 0 0 0
1 1 1.5126845914300489 6.476204289292509 1.915045780609459 0 0 0
33 1 2.5472354146869973 7.657166073104879 0.19639193276724626 0 0 0
159 1 5.226469474610915 7.789207628270198 2.9053153064949497 0 0 0
160 1 6.620587853836918 6.799765697448664 1.4971241466098422 0 0 0
189 1 7.93712827062292 8.174172958282881 0.07605884373501846 0 0 0
280 1 10.668866781572884 7.886081565486014 2.771955687878122 0 0 0
285 1 12.211242703047288 6.6975074847898295 1.3018461442154499 0 0 0
284 1 13.736590103291041 8.221729729912493 0.004538774725856994 0 0 0
413 1 17.802795280585983 6.800525067147214 1.4516728721061463 0 0 0
408 1 16.252953926856712 8.345210729426881 2.7454839849186947 0 0 0
63 1 20.93863458873198 9.182627451249862 1.3609932286981297 -1 0 0
67 1 2.8684719075088556 10.627869976326249 2.808588239552237 0 0 0
64 1 1.4724564285491517 11.982299564801988 1.384291319055089 0 0 0
35 1 3.8928457563280676 9.283658752551686 1.427972656315032 0 0 0
187 1 8.149850260994308 10.878797826595703 2.9610354555053116 0 0 0
158 1 6.971655680499206 12.198568809063607 1.5957521302936937 0 0 0
190 1 9.31648831071228 9.506045852514406 1.4782398203703175 0 0 0
317 1 12.17835747476009 12.148370837545114 1.254197664641067 0 0 0
279 1 15.067103419254396 9.603863287416505 1.34934136370578 0 0 0
318 1 13.532728795529412 10.806402672935107 2.5058589294150155 0 0 0
446 1 18.029077321463003 12.111503351171557 1.2851997848723609 0 0 0
445 1 16.39143376441925 10.88798596945371 21.70531232609678 0 0 -1
66 1 0.11652240920897583 10.970889540494456 0.0783392144961168 0 0 0
36 1 19.56480188314501 10.75850610936761 2.510745546312986 -1 0 0
65 1 2.620760792022882 13.200967213764294 0.017497324572632967 0 0 0
61 1 3.903668743597242 14.972784501234713 1.439774345846237 0 0 0
185 1 5.4812302632612315 13.66680536705507 2.7572139041365076 0 0 0
312 1 9.609328168125188 14.884018290732646 1.1698524226936085 0 0 0
186 1 11.027657908998663 13.5707608997286 2.7587510057282345 0 0 0
311 1 14.910917654497934 14.817603438181337 1.2896804277031575 0 0 0
316 1 13.55685983767197 13.528940221546273 21.728629501065374 0 0 -1
440 1 16.278258727933963 13.283862236943481 2.616665771597382 0 0 0
441 1 0.2914098423782754 13.572222156600471 2.7286853417425903 1 0 0
439 1 20.296286638771 14.678535351839638 1.4231580087061357 0 0 0
444 1 19.079835611960355 13.507142747679403 21.602937966927133 0 0 -1
98 1 1.2082372194744058 17.744520423832242 1.5082414966825584 0 0 0
99 1 2.7309720672746223 16.64221204196358 2.7841345034037785 0 0 0
223 1 6.721791608109444 17.455982334601437 1.3157572489997837 0 0 0
184 1 8.28746942457799 16.2329594102162 2.589099735145889 0 0 0
349 1 12.367445234521668 17.670060662986515 1.323741325069747 0 0 0
346 1 11.01526105255409 16.484636205846005 21.627840711534283 0 0 -1
350 1 13.799139401528462 16.39645348172404 2.5933066792408637 0 0 0
477 1 17.78616812340366 17.693319080553927 1.4942404563302913 0 0 0
474 1 16.422043553698362 16.1723407063891 21.706192440482504 0 0 -1
95 1 21.73388905083178 16.317999888264715 0.09188105630188337 -1 0 0
478 1 19.065540221797168 16.098261494211908 2.728530026034873 0 0 0
97 1 2.6737221049478137 19.046572619424598 0.03828683390146737 0 0 0
92 1 3.9524609762275027 20.53583243608493 1.609056202528481 0 0 0
222 1 5.49313884940766 19.046438553414056 2.736579423781737 0 0 0
216 1 9.511182697779715 20.472672345742634 1.281941335826987 0 0 0
344 1 10.938676655261004 19.13023949323097 2.449156989968734 0 0 0
254 1 13.808582376491971 0.0651596088639792 2.579738434977234 0 0 0
343 1 15.096628854172353 20.2256293937716 1.2061509592548523 0 0 0
348 1 13.608790695519868 19.021037893323577 21.640289781903128 0 0 -1
472 1 16.384628689366345 19.17266037055542 2.726074972974553 0 0 0
471 1 0.0560373618321357 0.1045070968402051 0.33922586572003594 1 1 0
93 1 21.442287462364842 19.154667243544832 2.782763917891313 -1 0 0
382 1 20.327063226531916 20.383213935989023 1.3541650448613842 0 -1 0
476 1 19.243871931549407 19.01465839485803 21.635794220843007 0 0 -1
96 1 21.37073816161255 0.5110565806256189 5.4163672634537745 -1 1 0
2 1 3.3889734596612264 1.6981829174932273 4.726252770198653 0 0 0
133 1 5.20404878422066 0.39477167236101673 5.774009088720412 0 0 0
136 1 7.938244160047335 2.842897105962378 5.709807793016101 0 0 0
130 1 9.371139090450477 1.3382603022441764 4.253760913253948 0 0 0
258 1 10.876699678004902 0.0196045197009028 5.387098965352439 0 0 0
249 1 14.993592887768958 1.4513291897025218 4.065793135563974 0 0 0
260 1 13.684449934702682 2.7302504066447155 5.52369348306938 0 0 0
386 1 16.403826755312753 0.22252507279756134 5.535525270776214 0 0 0
10 1 20.463519532255784 1.8386961171827703 3.6214398770743372 -1 0 0
377 1 19.279829643602543 2.970303248665948 5.34873149601466 0 0 0
32 1 4.241121842642764 4.136187972317301 4.0297353293467095 0 0 0
163 1 6.332009381259293 4.499306695088807 4.82030812935928 0 0 0
251 1 11.123215053635827 5.198171076987551 5.43879686710611 0 0 0
125 1 12.438539711915952 3.812884568772974 3.907042748794537 0 0 0
418 1 17.370860715002745 4.193816429399641 4.043856299996572 0 0 0
421 1 16.1828869686741 5.52824520936964 5.496856265413584 0 0 0
42 1 0.1419371540157705 7.8389273003404405 3.1902426097552254 0 0 0
34 1 2.4307549857040995 7.990687165156214 5.967614609189881 0 0 0
43 1 1.467979591470486 9.522946625170354 4.460135044663178 0 0 0
37 1 3.290949601718488 6.653441591389499 4.004446344297881 0 0 0
165 1 8.268099200782807 7.962309738794938 5.585158876337421 0 0 0
290 1 9.599403383068955 6.4698067357260465 4.31864696433433 0 0 0
281 1 14.85655444640015 6.755713923105458 3.927986411884309 0 0 0
292 1 13.461981405443575 8.095137061341187 5.270485169749687 0 0 0
450 1 17.87390068716108 9.466752411850289 3.8967703194966044 0 0 0
75 1 20.516612706861142 6.295806184692273 4.4367418958351275 -1 0 0
415 1 18.898256110610703 7.926477566875806 5.3236845356052305 0 0 0
195 1 5.6043755527164985 10.421681704909664 5.727035838810394 0 0 0
62 1 4.347541928067011 11.958048111596321 4.054047631185609 0 0 0
157 1 6.777435382122522 9.218723822695381 4.056881768465472 0 0 0
283 1 12.050308284329336 9.529787515780582 3.792083605239893 0 0 0
191 1 9.590095219517966 12.231552080724605 4.106358167877994 0 0 0
322 1 11.005184247124363 10.727371035829833 5.518438837601233 0 0 0
313 1 14.961443998220208 11.905109589817116 3.821222851130283 0 0 0
453 1 16.4983576282028 10.676018096266205 5.37747277064555 0 0 0
40 1 0.024397486296159343 10.678906130906624 5.601309457538194 0 0 0
420 1 20.73715655398291 12.259600661666806 3.9273614737744666 0 0 0
73 1 1.5252827032479692 14.961886782137174 4.23622721171176 0 0 0
68 1 2.848353701194591 13.500166425832788 5.514537936132163 0 0 0
197 1 8.140309127884136 13.448757711275652 5.726251623937563 0 0 0
188 1 6.858719783686382 15.027710985259102 4.058939160927272 0 0 0
315 1 12.408914856659026 15.119199664079815 4.02697342243963 0 0 0
324 1 13.683646837058888 13.396931518947328 5.233451425652947 0 0 0
443 1 17.691079725282844 14.926956291566455 4.061770907833325 0 0 0
452 1 19.242045080395798 13.54050841431374 5.361823182414184 0 0 0
103 1 0.09295766604908515 16.326005269675512 5.405627094846402 0 0 0
94 1 4.161252881731958 17.81491818851872 4.229874309726558 0 0 0
227 1 5.617622823138837 16.348505112596502 5.5611408192658525 0 0 0
218 1 9.660278685937664 17.819548989607508 3.925264835384028 0 0 0
354 1 10.883436124501483 16.3224313319133 5.350534794671326 0 0 0
345 1 15.161247110321629 17.664817004462027 3.913078037903205 0 0 0
482 1 16.232298512752866 16.158990438563915 5.4145459252935755 0 0 0
473 1 20.301813183471683 17.547775138474762 4.115029057397895 0 0 0
7 1 0.9693317611296356 20.59452973978405 4.156403700825885 0 -1 0
105 1 2.7241563191118305 19.28424133186445 5.314205151123 0 0 0
229 1 8.065032192426802 18.95596154448349 5.511090424508116 0 0 0
217 1 6.5829303591110655 20.535864296707754 4.3304836066624635 0 0 0
347 1 12.305330336024923 20.479452126422434 3.9533558205038424 0 0 0
356 1 13.763465572839992 19.079132492590844 5.361155079277464 0 0 0
475 1 17.59509195999651 20.54652146416379 4.13165778651758 0 0 0
484 1 18.999928614905606 19.159038020263853 5.386759193564291 0 0 0
12 1 1.4499890869790117 1.6367923703069116 6.454634694150813 0 0 0
14 1 2.8329565178474696 0.2713469214987527 7.801738099101372 0 0 0
13 1 0.26508005574767124 3.153079271715945 7.878787924693627 0 0 0
9 1 4.540960947376089 1.5290782275306285 9.035433687925975 0 0 0
8 1 6.582928842334366 1.5842944339435445 7.263697675457113 0 0 0
137 1 8.214642554212636 21.755919689772536 8.22921040235701 0 -1 0
256 1 11.069032825860466 2.8120402969617664 8.21767347350241 0 0 0
261 1 12.19804308713111 1.3251383541864281 6.788902924977912 0 0 0
389 1 17.852836355019384 1.726177183673989 6.848864010617957 0 0 0
384 1 16.458851241034225 3.0568704345258246 8.238845274035747 0 0 0
385 1 20.497093762834965 1.3937388759958185 9.181936681300646 0 0 0
390 1 19.04295726502224 21.737687959806763 7.939050163712756 0 -1 0
131 1 8.065339947614516 5.330484491939799 8.304769822462045 0 0 0
144 1 6.757026891172229 3.556585243001536 9.246342441087108 0 0 0
135 1 9.627007951459742 4.092529157816648 6.881899072387524 0 0 0
255 1 14.860142999498752 4.206508400772334 6.771774106918375 0 0 0
294 1 13.661597619883345 5.412505342837742 8.433808954700645 0 0 0
383 1 20.67271794258874 4.708654132747274 6.251680819267782 0 0 0
422 1 19.212500950391824 5.583266696220178 7.973880083090511 0 0 0
407 1 0.34021732190128945 7.967846677806492 7.621497631386516 1 0 0
39 1 5.584826275941284 7.362695492419227 8.218025678940089 0 0 0
38 1 4.158287958358381 9.042909124225014 7.0818286172086085 0 0 0
166 1 6.777902028533758 6.322676452578157 6.489939218196038 0 0 0
288 1 10.960598790197478 7.937796171212712 8.391949288400031 0 0 0
293 1 12.339339609135195 6.661271436543547 6.863260740996199 0 0 0
167 1 9.431807346283438 6.537709270934598 9.697692361138573 0 0 0
287 1 14.896316699611143 9.549393936515582 6.637587309132896 0 0 0
411 1 17.6169699709223 6.853169640942794 6.853931633243072 0 0 0
416 1 16.18926574830056 8.356819359715136 7.975734663123007 0 0 0
414 1 20.685516985396465 6.808149702230226 9.351986300225851 0 0 0
44 1 2.8792259176244315 10.585325883508002 8.268940984356997 0 0 0
74 1 1.5425371094291933 12.009518002472836 7.00880076706435 0 0 0
199 1 8.313407932889287 10.735900990452283 8.23666713276565 0 0 0
198 1 6.828330558223735 12.038222868993946 6.920168375984362 0 0 0
161 1 9.693304758554364 9.270506982688108 6.843639957248636 0 0 0
325 1 12.313062570937014 12.222848494378303 6.675129674942404 0 0 0
194 1 9.794955800802994 12.067492920721003 9.369847993347667 0 0 0
326 1 13.59675267785148 10.905083941040498 8.00276975152513 0 0 0
428 1 17.75531161958644 9.437870264503156 9.529539074770145 0 0 0
409 1 20.359193113695923 9.385430060398928 6.751696605882675 0 0 0
419 1 18.98279399431276 10.81985314927544 7.9891857997114215 0 0 0
41 1 0.05161674538396146 13.431808504620218 8.347486398157878 0 0 0
70 1 5.580972322094154 13.365895467301328 8.303066633126004 0 0 0
193 1 4.279505874525853 14.907115638033883 6.822859878363854 0 0 0
192 1 9.667522152006118 14.955014528465595 6.901438902413585 0 0 0
320 1 11.019736085248656 13.555090495688582 8.18162262706168 0 0 0
319 1 14.810352756587907 14.75962612550032 6.82290807325571 0 0 0
454 1 17.802386844990277 12.310585167554203 6.712727506471004 0 0 0
448 1 16.466481162967348 13.618199606913665 8.03344018282146 0 0 0
447 1 20.62677900431458 14.788217469857605 6.724659393265233 0 0 0
106 1 1.5249130069925263 17.67413350667031 6.586950839482428 0 0 0
107 1 2.9858520196986356 16.265974835196623 7.9965348545340165 0 0 0
102 1 4.251267173088182 17.60357865799146 9.524206594811902 0 0 0
230 1 7.121266836205282 17.537466293953067 7.076649938859783 0 0 0
231 1 8.441812797199727 16.309599006379177 8.449296943953131 0 0 0
357 1 12.26422548200684 17.696658568002224 6.6059195382976 0 0 0
358 1 13.666995960832416 16.350257961940653 8.048567797513885 0 0 0
485 1 17.729572496101493 17.744271145789497 6.884541620198848 0 0 0
486 1 19.306539137103513 16.3333933855538 8.09364163600803 0 0 0
101 1 0.16848921825737628 19.058992906326086 7.874359780642217 0 0 0
225 1 5.581954063336154 18.864843609320566 8.13158624981158 0 0 0
100 1 4.173443954433797 20.381913978725205 6.803522225436609 0 0 0
224 1 9.65027172845002 20.31896823052782 6.586365328666349 0 0 0
352 1 11.161010628879666 19.18198378409849 8.01017238324779 0 0 0
262 1 13.510693453107503 21.779529260809745 8.122001527090385 0 -1 0
351 1 14.934136452009731 20.730163821628363 6.735651254892541 0 0 0
480 1 16.353282803218185 19.22079174842526 8.285535883620192 0 0 0
479 1 20.508194689196003 20.489178640967612 6.530624735741924 0 0 0
21 1 1.5587537865274579 1.2978504191004632 11.98364394788565 0 0 0
20 1 2.9252967023483287 2.6780110055480573 10.635026636746314 0 0 0
18 1 0.07825023785199989 0.03372629153321024 10.644231485485085 0 0 0
141 1 5.3322498626861385 21.725871829601086 10.624149080649977 0 -1 0
139 1 8.24501164506067 2.5143736717039866 10.906347100251631 0 0 0
15 1 6.846117150350421 1.1571434936051914 12.076573474109535 0 0 0
132 1 9.602827378932451 1.403610721358814 9.332245676582712 0 0 0
269 1 12.572145556370968 1.470825715503333 12.255321557712456 0 0 0
257 1 14.970098529032366 1.4801108466921498 9.45665669206282 0 0 0
268 1 13.728919040636237 2.9696215384959523 10.958059375738642 0 0 0
397 1 17.840180098526357 1.3542527433273044 12.391316710106183 0 0 0
394 1 16.514605902170818 0.3293882763593454 10.824544226099016 0 0 0
396 1 19.233370798301298 2.69153673508293 10.855492379556436 0 0 0
11 1 1.8251562851946934 4.401066697668969 9.394677741394272 0 0 0
48 1 0.3430129421598894 5.530027340017781 10.709171453259778 0 0 0
143 1 5.7777289560517024 5.114628583843161 10.769513250097036 0 0 0
52 1 4.194325557958112 4.030299180881274 12.257605366530038 0 0 0
298 1 10.841145668436981 5.42773632923461 11.198734578033442 0 0 0
259 1 12.142343969886891 4.191418964603009 9.832091609088325 0 0 0
138 1 9.541293119066273 3.8905973972542127 12.452964393540107 0 0 0
263 1 15.105743259991689 4.122180474684229 12.320102514582187 0 0 0
387 1 17.91616627384053 4.19188429455731 9.472865587488359 0 0 0
426 1 16.416466873090005 5.518328274976996 10.777110682214902 0 0 0
391 1 20.78719584249692 4.1469542168806 12.101064870687939 0 0 0
51 1 2.873857807815696 7.935622179959034 10.713917795280013 0 0 0
46 1 1.3380298681567189 6.924606178069765 12.185638228231387 0 0 0
71 1 1.353559497927988 9.436431574873207 9.414276090344096 0 0 0
171 1 3.9040423432346305 6.068147434665147 9.619534935992574 0 0 0
173 1 7.106903711279397 8.923708735959497 9.318029994183139 0 0 0
162 1 8.239291205017985 8.17346926691454 11.155081093921758 0 0 0
169 1 6.851174834942787 6.594585574083161 12.332841341903265 0 0 0
301 1 12.244753928084286 6.828208128098298 12.40136736836955 0 0 0
291 1 12.39544121349177 9.292615619231606 9.398877106859077 0 0 0
289 1 14.933580249549786 6.937133642362155 9.355008287003917 0 0 0
300 1 13.553655186101588 8.146515626701426 10.950266713428332 0 0 0
429 1 17.820913504140872 6.713000434411244 12.280756416298313 0 0 0
417 1 19.243454474084945 8.044929095004639 10.806614645454113 0 0 0
82 1 1.6094194430897042 11.995437259111565 12.330974964005051 0 0 0
449 1 0.17802314857899432 10.846511602610747 10.83906502523848 1 0 0
203 1 4.22001211971037 9.349057302639482 12.047853420180427 0 0 0
50 1 4.340453281234744 11.94025194511118 9.61155574294959 0 0 0
164 1 5.686049328485733 10.443425407939918 10.657202900793836 0 0 0
206 1 6.894912101284087 11.855970931045064 12.224431442953268 0 0 0
168 1 9.586976767935862 9.579061342419926 12.324300480072344 0 0 0
330 1 11.058407591129212 10.622124038662555 10.873597681941353 0 0 0
333 1 12.118899008244012 12.076036464254242 12.505531494209809 0 0 0
295 1 14.920653651281086 9.54768625923223 12.166417880047165 0 0 0
321 1 15.147358632590235 12.226102290005526 9.36875039193679 0 0 0
458 1 16.514303102387224 10.796570151445087 10.734145308146026 0 0 0
461 1 17.862844966806463 12.187559004668543 12.1704534190279 0 0 0
79 1 20.580644382395025 9.259713788584179 12.240786558966692 -1 0 0
69 1 20.38374182811847 12.066656517894401 9.44451045501575 -1 0 0
72 1 1.5581452600648218 14.943903545123659 9.550135035311229 0 0 0
81 1 2.808569902031311 13.197060854298904 10.741282288813961 0 0 0
76 1 4.019752687625028 14.787657857957957 12.159801828062047 0 0 0
196 1 6.868538842635363 14.735284323606622 9.742963963082824 0 0 0
205 1 8.393788898677913 13.164870846589954 10.844852986814757 0 0 0
200 1 9.496138642525917 14.902887055938145 12.185354871164925 0 0 0
323 1 12.355173831860707 14.734236231250467 9.597447500631512 0 0 0
332 1 13.906914261133338 13.462780327259225 11.082469037777402 0 0 0
327 1 14.947776917136592 15.135442427754063 12.358859636528825 0 0 0
451 1 17.71733956287958 15.057116280817965 9.474409310332057 0 0 0
460 1 19.17356201047701 13.650931970879054 10.620578717841664 0 0 0
455 1 20.470454623305315 14.799504717556946 12.008617294728626 0 0 0
114 1 1.384958450946139 17.651493849435674 12.176438629949656 0 0 0
111 1 0.24794894653410535 16.344219547006848 10.855324749374777 0 0 0
235 1 5.500875860911769 16.218045267541605 10.93964803581129 0 0 0
238 1 6.870327182751694 17.671214538751073 12.086961671821637 0 0 0
226 1 9.855466605536144 17.77859118283586 9.619912645927085 0 0 0
362 1 11.02355741001547 16.229475853423367 10.867817730304267 0 0 0
365 1 12.158192510883415 17.593639397124615 12.32627014409426 0 0 0
353 1 14.986368111097956 17.795749681320057 9.721267715413997 0 0 0
490 1 16.38397281094304 16.289281737011056 10.911574174563041 0 0 0
481 1 20.694234464776525 17.73486914135958 9.474337235808203 0 0 0
104 1 1.5911029007974913 20.455962827878274 9.112672238643109 0 0 0
113 1 2.8935861849487874 18.93495934874126 10.864399955753887 0 0 0
108 1 4.18322687713148 20.319305981446384 12.233323609664886 0 0 0
228 1 6.951997597658856 20.3275734819798 9.449235432228578 0 0 0
237 1 8.225454071856582 19.019820483895007 10.800973030961716 0 0 0
266 1 11.15369878926879 0.28970149515620136 10.799918615844422 0 0 0
232 1 9.54227357085176 20.439779456735494 12.154474917853626 0 0 0
355 1 12.480466073825625 20.604232185837404 9.675427090654846 0 0 0
364 1 13.620242967297367 19.08952002764753 11.102170074702732 0 0 0
359 1 15.17244015424866 20.49326949277879 12.112724279262487 0 0 0
483 1 17.894443104409582 20.552377790072697 9.538884079815546 0 0 0
492 1 19.21832596143542 19.044482240674608 10.715169376813567 0 0 0
487 1 20.754351822102038 20.39287002911885 12.05935640844826 0 0 0
16 1 0.14997527707080566 2.4254628502274818 13.51711328313907 0 0 0
22 1 2.859196544622646 21.597735715942456 13.654668029921075 0 -1 0
17 1 4.041512457074308 1.246224830569856 15.025822439246415 0 0 0
134 1 5.346081137058134 2.6298509522318434 13.557229936491842 0 0 0
145 1 8.053442109859466 21.647714863876022 13.70106351576304 0 -1 0
140 1 9.609243419317185 1.0423709703489983 15.077643985029853 0 0 0
264 1 11.057934830813279 2.451258797894655 13.722722539348753 0 0 0
265 1 15.117771347987553 1.301793567279995 15.247842398293793 0 0 0
392 1 16.513823501118924 2.5472097233440705 13.641234654087077 0 0 0
393 1 20.550617996046853 1.1441355406906688 15.01165705879866 0 0 0
19 1 1.4294621921741104 3.9696006208175567 15.10058276039459 0 0 0
47 1 2.5514169530764144 5.369189227226286 13.586075109761149 0 0 0
175 1 6.730035362948375 4.0524455680331775 15.1231702078707 0 0 0
174 1 8.174307227931134 5.2060291154676985 13.676236275548757 0 0 0
267 1 12.324908339087667 3.9110162757122993 15.144137321652767 0 0 0
302 1 13.662451655909722 5.493290606445815 13.62765480832404 0 0 0
395 1 18.011551873649662 3.872111818131985 14.991829212742081 0 0 0
430 1 19.060765685885382 5.315526744308683 13.588579432152715 0 0 0
423 1 0.10371736487767265 7.981433227837032 13.767644250753548 1 0 0
142 1 4.215805884611887 6.60723677864454 15.012391676133731 0 0 0
45 1 5.50683966768907 7.886491469998417 13.505666870469746 0 0 0
172 1 6.816999854316953 9.271275403280066 14.710520996770244 0 0 0
170 1 9.596766623443562 6.74197638580525 14.964297633861214 0 0 0
296 1 10.861018040674443 8.111322672248988 13.719815083078513 0 0 0
297 1 15.037259579879672 6.8319254631903386 15.006323336247128 0 0 0
424 1 16.31617986440513 8.164805948123353 13.396761952654952 0 0 0
425 1 20.372049281570007 6.637000690923483 15.069830585231804 0 0 0
49 1 1.5364773115573849 9.396056123311853 14.988546267023104 0 0 0
83 1 2.9694297463199404 10.68586361323357 13.706859571657493 0 0 0
78 1 4.243901967966506 12.130112947592712 14.972071122050213 0 0 0
207 1 8.254862505580176 10.846817691130411 13.782069985904947 0 0 0
299 1 12.392477135223821 9.370311293822173 15.071470774149867 0 0 0
202 1 9.421443758294018 12.319276217319592 15.072109357391888 0 0 0
334 1 13.85994322987872 10.81601996310092 13.716809011015329 0 0 0
329 1 14.904243305737218 12.414213817143148 14.889898707057803 0 0 0
427 1 17.569579692222117 9.556395092725046 14.964739685278301 0 0 0
462 1 19.18989260573378 10.606523191809535 13.537335792821834 0 0 0
457 1 20.538079916963387 12.080786765955128 14.8677194795378 0 0 0
80 1 1.2220684661130792 14.84407342442264 14.899749025091733 0 0 0
77 1 0.0643624310975367 13.445597550643654 13.430174728429705 0 0 0
201 1 5.4269081606816885 13.444519330706393 13.519195435031806 0 0 0
204 1 6.65453369303441 15.035708061732944 14.88334700526484 0 0 0
328 1 10.859357267177522 13.54739376436159 13.682069765945135 0 0 0
331 1 12.231745961526666 14.941284187468044 14.985765310100424 0 0 0
456 1 16.412811267509774 13.649044912914846 13.601823124845414 0 0 0
459 1 17.876908314816273 15.142174351261591 14.934171326375326 0 0 0
115 1 2.731252579781104 16.15557503840474 13.52313801371896 0 0 0
110 1 3.6726129524455478 17.58410075914359 15.011893099376625 0 0 0
239 1 8.11055259000519 16.269081764533503 13.477548179417926 0 0 0
234 1 9.352681151748566 17.569941092799123 14.943918391613044 0 0 0
366 1 13.515482831880323 16.334937227887576 13.539656021459644 0 0 0
361 1 14.940092130760194 17.733130156272402 14.825767554497178 0 0 0
493 1 17.791832134205357 17.655050438717964 12.291364116450112 0 0 0
494 1 19.163727217388526 16.253196852776263 13.395563772381585 0 0 0
489 1 20.498941517392492 17.696625308891274 14.957069041111529 0 0 0
112 1 1.3581280763381314 20.38936016842884 14.964315449243452 0 0 0
109 1 0.002667563850274867 18.97432605270257 13.652625754478278 0 0 0
233 1 5.197167726930299 18.84003092348908 13.679529645060702 0 0 0
236 1 6.5950398792829645 20.369924219518985 14.970353647086913 0 0 0
360 1 10.814087754046778 18.971630365067902 13.76747588208693 0 0 0
363 1 12.197048026073832 20.54972991366816 14.91730192346783 0 0 0
270 1 13.755657576228737 0.07273722071972699 13.583867059582838 0 0 0
488 1 16.309948823134228 19.010894144511497 13.690742489843096 0 0 0
491 1 17.8776669327774 20.17162467975454 14.886128764008244 0 0 0
398 1 19.12386202083117 21.70864872991193 13.54219219247665 0 -1 0
29 1 1.4672173966342583 1.2120707847892083 17.713977063450116 0 0 0
28 1 2.7285370512831015 2.5040846621084545 16.424604468821816 0 0 0
152 1 6.8983193085923205 1.2882694122404994 17.801651183238587 0 0 0
151 1 8.055813285091302 2.51805215485733 16.476048520410526 0 0 0
274 1 11.006775335898984 21.73494046576986 16.440085315562253 0 -1 0
277 1 12.28629079379129 1.395695750117857 17.847501073065942 0 0 0
276 1 13.759012946323463 2.6049617738402016 16.608848417910412 0 0 0
405 1 18.01574291406945 1.1557100265747888 17.65044558026225 0 0 0
404 1 19.431184502662656 2.4861794680060494 16.34191244930799 0 0 0
56 1 21.7465522815475 5.197355177179765 16.40337446150162 -1 0 0
179 1 4.106383429195457 3.822784718488847 17.826230736077836 0 0 0
182 1 5.4491689110267965 5.408227685064908 16.61947575968703 0 0 0
146 1 9.3876654133599 3.940557048946061 17.829537130330973 0 0 0
306 1 10.894138001993946 5.257413026953318 16.388271182572673 0 0 0
271 1 15.175856701271812 4.1223141989036955 17.791300812003506 0 0 0
434 1 16.485561632521463 5.381788064191634 16.277925669849818 0 0 0
399 1 20.559028045881035 3.868621700296082 17.954733166024305 0 0 0
59 1 1.4081746526995527 6.475880478081855 17.7541577024406 0 0 0
58 1 2.770547195907834 8.185928373286137 16.311170292246594 0 0 0
183 1 6.792276332380345 6.9750930661532955 17.883707866135143 0 0 0
181 1 8.286351266014726 8.117598152722426 16.206606790220523 0 0 0
309 1 12.238635793658146 6.714554746037017 17.73558500397789 0 0 0
308 1 13.691069610143055 8.190079929009414 16.47454694924985 0 0 0
437 1 17.777912271287928 6.611978948201558 17.842979034726135 0 0 0
436 1 18.86513642974991 8.10767097399145 16.37978520447556 0 0 0
90 1 1.2861680899892227 12.091381597006315 17.646234581566464 0 0 0
53 1 4.033562612259841 9.44674884803483 17.785521998018744 0 0 0
211 1 5.473519373134168 10.609011906204243 16.27202061662896 0 0 0
214 1 6.6584023070787675 12.232144235382265 17.78472575174764 0 0 0
176 1 9.434296761800171 9.511673913335327 17.68784908327765 0 0 0
338 1 10.99094126381685 10.849354969453712 16.37202678041622 0 0 0
342 1 12.169960764859082 12.25324867144551 17.766622137022697 0 0 0
303 1 15.08177071577674 9.418470409611249 17.727287961980664 0 0 0
466 1 16.284815880332964 10.889631807103553 16.273617106948716 0 0 0
469 1 17.799855662442617 12.113186516668613 17.564830822298653 0 0 0
87 1 0.05071667170359717 10.697568474182681 16.267810830128337 0 0 0
431 1 20.507836660696718 9.464166484962044 17.57647667039209 0 0 0
89 1 2.7022198446180368 13.391564993022737 16.285140438324397 0 0 0
84 1 4.059302582447274 14.767042786323822 17.868330778174094 0 0 0
213 1 8.00544430586958 13.583648683521714 16.51151570608462 0 0 0
208 1 9.540918564077323 14.826131952472233 17.680363587836556 0 0 0
335 1 15.168479187009424 14.986354344395844 17.402064876473247 0 0 0
340 1 13.576172598549396 13.576967992640613 16.40710714301712 0 0 0
468 1 19.23513280501998 13.621176747304458 16.24833256805067 0 0 0
463 1 20.54364852888159 14.927564444263844 17.75011958718274 0 0 0
122 1 1.342780542028381 17.55770608637424 17.745707530849216 0 0 0
119 1 21.716279041601034 16.17825011066726 16.303510622169632 -1 0 0
243 1 5.194036685702623 16.027773386715126 16.35364252133216 0 0 0
246 1 6.661251766203401 17.453658423159727 17.666237392318823 0 0 0
370 1 10.837562529860374 16.2896626013361 16.224027160822974 0 0 0
373 1 12.158820382201469 17.491388384311232 17.615236207557775 0 0 0
498 1 16.384069316307965 16.376220553096797 15.99404361907764 0 0 0
501 1 17.560950609871213 17.618956839470595 17.677597578224336 0 0 0
121 1 2.719842949372982 19.09547253355809 16.489128880135073 0 0 0
149 1 5.3875204117751 21.73405184987578 16.45205107385484 0 -1 0
116 1 4.087324371810825 20.306211410840582 17.760257269240967 0 0 0
245 1 8.002997894707951 18.941085653007097 16.333985006177194 0 0 0
240 1 9.441015279883844 20.28825976332886 17.684489567677232 0 0 0
372 1 13.496074848690583 18.87641943196932 16.164147895500424 0 0 0
367 1 14.982958148753347 20.253651530413713 17.558960130569563 0 0 0
402 1 16.565242740941468 21.552089646816952 16.29721133335436 0 -1 0
26 1 0.1402778140249339 21.64713001705668 16.50535388755309 0 -1 0
500 1 19.09411629498344 18.992365950279734 16.47674260859474 0 0 0
495 1 20.56084542157111 20.294810018793832 17.714961474166607 0 0 0
24 1 0.10957906586452595 2.5923224489498904 19.362618987711144 0 0 0
5 1 4.032549286247493 1.4772070009918916 20.899906727566705 0 0 -1
147 1 5.385042756944248 2.6541199093685073 19.277415170896255 0 0 0
129 1 8.137121096603089 2.711977179645061 0.22099447958996876 0 0 0
148 1 9.4690768767111 1.3601017498989891 20.648177978795438 0 0 0
272 1 10.728631750269594 2.5729297498024506 19.18874004279098 0 0 0
252 1 13.536871576479449 2.72301668412808 21.520454991350853 0 0 -1
273 1 14.829951800907685 1.149527768251317 20.296503432127754 0 0 0
378 1 16.24459037040468 21.575709336253045 21.65440650858331 0 -1 -1