LAMMPS (10 Sep 2025)
OMP_NUM_THREADS environment is not set. Defaulting to 1 thread.
  using 1 OpenMP thread(s) per MPI task
Loaded 1 plugins from C:\Users\lmike\AppData\Local\LAMMPS 64-bit 10Sep2025 with GUI\plugins
# LAMMPS input generated from LammpsInputFile with pymatgen v2025.10.7

# STYLES
units metal
atom_style atomic

# SET UP CALCULATION
read_data starting_config.dat
Reading data file ...
  orthogonal box = (0 0 0) to (21.790885 21.790885 21.790885)
  1 by 1 by 1 MPI processor grid
  reading atoms ...
  502 atoms
  read_data CPU = 0.004 seconds
pair_style sw
pair_coeff * * Si.sw Si
Reading sw potential file Si.sw with DATE: 2007-06-11
velocity all create 1100 3644111

# CALCULATION PARAMETERS
fix f1 all nvt temp 1100.0 1100.0 $(100.0*dt)
fix f1 all nvt temp 1100.0 1100.0 0.10000000000000000555
thermo 100000
thermo_style custom step temp press spcpu cpuremain

# RUN CALC AND WRITE OUTPUTS
dump d1 all custom 100 state_dump id type x y z vx vy vz
run 10000000
Neighbor list info ...
  update: every = 1 steps, delay = 0 steps, check = yes
  max neighbors/atom: 2000, page size: 100000
  master list distance cutoff = 5.77118
  ghost atom cutoff = 5.77118
  binsize = 2.88559, bins = 8 8 8
  1 neighbor lists, perpetual/occasional/extra = 1 0 0
  (1) pair sw, perpetual
      attributes: full, newton on
      pair build: full/bin/atomonly
      stencil: full/bin/3d
      bin: standard
Per MPI rank memory allocation (min/avg/max) = 3.116 | 3.116 | 3.116 Mbytes
   Step          Temp          Press          S/CPU         CPULeft    
         0   1100          -1540.6919      0              0            
    100000   1088.0238     -13267.703      585.01944      16922.515    
    200000   1103.896      -16308.858      635.47904      16086.509    
    300000   1194.347      -14548.364      818.10363      14567.137    
    400000   1127.2249     -13267.512      708.82853      14198.588    
    500000   1061.2501     -13916.634      680.37571      14033.124    
    600000   1085.3028     -13844.498      690.86981      13838.845    
    700000   1097.7311     -13900.84       696.31033      13643.693    
    800000   1073.3314     -14596.51       690.41727      13475.523    
    900000   1080.8026     -15679.427      684.03105      13326.21     
   1000000   1071.0638     -14181.046      697.69554      13151.752    
   1100000   1094.7729     -13881.084      701.98769      12975.864    
   1200000   1045.9066     -14686.132      706.49518      12798.883    
   1300000   1110.8005     -14082.856      700.5222       12635.431    
   1400000   1142.4832     -13568.278      699.80617      12475.833    
   1500000   1142.236      -13136.06       697.4759       12321.168    
   1600000   1079.6817     -14645.203      691.06132      12174.9      
   1700000   1133.7201     -15250.628      705.36627      12014.489    
   1800000   1149.1981     -12666.733      699.56498      11861.505    
   1900000   1056.0898     -14177.285      690.39354      11717.673    
   2000000   1075.8897     -14273.23       696.70622      11568.49     
   2100000   1094.6704     -13923.512      685.96239      11428.302    
   2200000   1056.3228     -14437.459      692.12023      11283.007    
   2300000   1070.5832     -13263.863      693.64192      11136.721    
   2400000   1151.3984     -13300.257      691.20366      10992.223    
   2500000   1046.8597     -12263.674      699.0179       10842.859    
   2600000   1103.0121     -15444.267      701.84785      10692.337    
   2700000   1111.1883     -13932.607      695.34704      10546.013    
   2800000   1120.106      -14091.987      702.14788      10396.287    
   2900000   1090.5461     -14676.061      695.759        10250.266    
   3000000   1077.7422     -13885.824      695.40538      10104.569    
   3100000   1133.4638     -12277.916      699.0658       9957.3175    
   3200000   1102.865      -14215.684      687.74488      9815.3329    
   3300000   1015.0761     -15037.844      691.4724       9671.5497    
   3400000   1128.3736     -13868.05       691.44403      9527.7289    
   3500000   1168.3027     -13972.908      689.11788      9384.7687    
   3600000   1111.8924     -14463.363      693.02627      9240.2341    
   3700000   1054.6239     -14004.979      692.27838      9095.9779    
   3800000   1093.9809     -13620.196      687.97286      8953.1864    
   3900000   1103.0159     -14764.232      690.17053      8809.5395    
   4000000   1158.9358     -14106.192      695.89116      8664.0438    
   4100000   1100.6963     -12366.054      695.44977      8518.7668    
   4200000   1015.191      -12752.147      700.30073      8372.1851    
   4300000   1146.6021     -14353.318      687.29362      8229.3618    
   4400000   1101.5534     -13798.083      698.03114      8083.5683    
   4500000   1140.5705     -14061.751      702.26367      7936.8322    
   4600000   1090.5262     -11823.404      701.43378      7790.4825    
   4700000   1038.176      -14951.542      705.14427      7643.4478    
   4800000   1104.8311     -15007.7        691.25041      7499.7187    
   4900000   1075.4785     -15498.166      710.18179      7351.9375    
   5000000   1073.0945     -13230.345      703.06338      7205.8609    
   5100000   1053.2891     -11917.554      684.96894      7063.545     
   5200000   1123.7619     -13884.365      693.52813      6919.4245    
   5300000   1111.0976     -13631.263      694.88229      6775.0522    
   5400000   1086.2878     -13923.542      704.74683      6628.9811    
   5500000   1043.1469     -15821.273      707.04883      6482.6839    
   5600000   1057.9289     -13425.329      700.58983      6337.585     
   5700000   1042.2051     -13781.709      698.88187      6192.832     
   5800000   1111.816      -15585.719      697.20755      6048.3854    
   5900000   1064.2743     -13339.346      691.84025      5904.7465    
   6000000   1032.9362     -14193.738      693.01901      5760.9136    
   6100000   1129.5363     -12141.769      694.25147      5616.9018    
   6200000   1040.2499     -13695.656      704.48598      5471.6065    
   6300000   1059.463      -12174.882      702.12734      5326.6975    
   6400000   1147.6399     -13499.974      698.18966      5182.318     
   6500000   1169.778      -11622.422      702.00833      5037.5545    
   6600000   1163.0856     -12779.247      682.83535      4894.9215    
   6700000   1086.0683     -13937.141      698.59299      4750.5477    
   6800000   1082.9373     -13784.402      695.96227      4606.4646    
   6900000   1008.5856     -15630.848      697.8329       4462.22      
   7000000   1079.9947     -14272.461      695.75896      4318.1854    
   7100000   1059.8107     -14124.707      694.50332      4174.2656    
   7200000   1113.0493     -12211.411      704.22613      4029.5709    
   7300000   1176.2679     -14747.149      707.1494       3884.7328    
   7400000   1093.916      -15153.939      700.55411      3740.4551    
   7500000   1070.8798     -13899.041      705.965        3595.8536    
   7600000   1176.4255     -13830.46       692.33931      3452.2101    
   7700000   1068.4654     -12349.983      694.00837      3308.4422    
   7800000   1081.8447     -13599.439      705.52367      3164.0027    
   7900000   1140.1242     -14088.238      700.33493      3019.9107    
   8000000   1075.9727     -12822.462      698.1881       2875.9611    
   8100000   1133.3985     -13703.78       693.04314      2732.2787    
   8200000   1118.8932     -13821.755      697.2916       2588.3885    
   8300000   1024.927      -14931.91       696.37803      2444.5483    
   8400000   1105.1139     -13765.908      693.1845       2300.8399    
   8500000   1167.1331     -12355.126      690.65441      2157.2117    
   8600000   1117.068      -15540.726      692.04551      2013.5091    
   8700000   1064.4774     -13225.873      700.12818      1869.5389    
   8800000   1044.0726     -12517.473      694.94324      1725.74      
   8900000   1077.5099     -15231.558      701.39645      1581.7752    
   9000000   1107.288      -12131.78       694.1011       1438.0078    
   9100000   1121.7239     -14357.962      695.36926      1294.2078    
   9200000   1107.5621     -12739.652      693.99104      1150.4324    
   9300000   1086.4739     -15680.363      699.36137      1006.5669    
   9400000   1141.992      -13981.497      711.16379      862.56863    
   9500000   1037.0821     -16996.783      706.19846      718.6936     
   9600000   1093.0747     -13691.199      723.96434      574.72112    
   9700000   1108.1121     -14702.014      708.80374      430.9605     
   9800000   1129.776      -11882.138      677.26657      287.38861    
   9900000   1147.4736     -13681.046      675.815        143.73749    
  10000000   1059.7664     -14306.953      699.9597       0            
Loop time of 14372.9 on 1 procs for 10000000 steps with 502 atoms

Performance: 60.113 ns/day, 0.399 hours/ns, 695.755 timesteps/s, 349.269 katom-step/s
99.5% CPU use with 1 MPI tasks x 1 OpenMP threads

MPI task timing breakdown:
Section |  min time  |  avg time  |  max time  |%varavg| %total
---------------------------------------------------------------
Pair    | 14108      | 14108      | 14108      |   0.0 | 98.15
Neigh   | 14.739     | 14.739     | 14.739     |   0.0 |  0.10
Comm    | 39.28      | 39.28      | 39.28      |   0.0 |  0.27
Output  | 138.45     | 138.45     | 138.45     |   0.0 |  0.96
Modify  | 58.454     | 58.454     | 58.454     |   0.0 |  0.41
Other   |            | 14.42      |            |       |  0.10

Nlocal:            502 ave         502 max         502 min
Histogram: 1 0 0 0 0 0 0 0 0 0
Nghost:           1393 ave        1393 max        1393 min
Histogram: 1 0 0 0 0 0 0 0 0 0
Neighs:              0 ave           0 max           0 min
Histogram: 1 0 0 0 0 0 0 0 0 0
FullNghs:        17426 ave       17426 max       17426 min
Histogram: 1 0 0 0 0 0 0 0 0 0

Total # of neighbors = 17426
Ave neighs/atom = 34.713147
Neighbor list builds = 20790
Dangerous builds = 0
write_data FINAL_STRUCTURE
System init for write_data ...
Total wall time: 3:59:32
