LAMMPS data file via write_data, version 10 Sep 2025, timestep = 10000000, units = metal

522 atoms
1 atom types

0 21.772397 xlo xhi
0 21.772397 ylo yhi
0 21.772397 zlo zhi

Masses

1 28.085

Atoms # atomic

7 1 1.3135385010261766 1.5772349424153678 1.4482691038315203 0 0 0
6 1 2.7343389509003013 2.661458687388631 21.63478742631611 0 0 -1
130 1 5.226570753851618 2.865218449568077 2.9840499328186114 0 0 0
135 1 6.660498742070437 1.542027365629381 1.5375997993098898 0 0 0
136 1 7.688197169555879 21.34762123704854 2.40504364790291 0 -1 0
163 1 9.861393536122792 1.3811790980480396 2.013826893245169 0 0 0
258 1 12.63424672131407 1.4721180373446614 2.8173797182931564 0 0 0
263 1 13.167292399275906 0.6759616549822053 0.6259548159623135 0 0 0
391 1 17.91216060698185 1.3232812798701086 1.2407773197094027 0 0 0
386 1 16.553678108687595 2.669195757394317 2.6937336448863385 0 0 0
388 1 16.5220177428345 0.07285537252921193 21.566367337351878 0 0 -1
2 1 0.031312828919105584 2.830269458368551 2.8454452808386907 0 0 0
390 1 19.005970696271337 2.788901562711308 21.725781575717246 0 0 -1
392 1 19.05467649600509 21.70898146951334 2.8392688935278225 0 -1 0
4 1 0.025870146438861936 0.27711330667781026 0.07968640422029338 0 0 0
40 1 2.579209551085918 5.49594146068101 2.548239295656569 0 0 0
164 1 3.9756870177199706 4.130670712079226 1.340629991269328 0 0 0
168 1 7.73052695011516 5.834737922190217 2.7049684866228647 0 0 0
129 1 8.87475504254862 4.620181870436336 0.6912155847074719 0 0 0
259 1 11.256159400776477 3.046894308375672 0.5330297249675119 0 0 0
261 1 11.786102724900186 4.743020416870359 2.013354334629967 0 0 0
257 1 15.07992172379275 4.0422112223604 1.1156136261047158 0 0 0
296 1 14.198652058299729 6.276285347868606 1.659517119936253 0 0 0
424 1 18.992584780737456 5.635000712342762 2.940554610442545 0 0 0
385 1 20.353676921011004 4.182934971712852 1.4513209081880847 0 0 0
36 1 21.6608289888548 5.3655282199297245 0.13162715539306674 -1 0 0
39 1 1.163700116728513 6.957363387553742 1.1352382313550904 0 0 0
162 1 4.910923545345877 8.356982166674502 2.76360595750502 0 0 0
165 1 6.424129065753473 7.17256579751457 1.3047081490665389 0 0 0
295 1 11.717487540314231 7.040849943408024 1.018510320316053 0 0 0
290 1 10.72411035711925 8.471702259216597 2.7247368371477605 0 0 0
294 1 13.49746441640936 8.314005010589412 21.535414555590624 0 0 -1
423 1 17.86122392043072 6.973724551903019 1.4860431117013553 0 0 0
418 1 16.17658462176774 8.35915626067055 2.7226316594254008 0 0 0
34 1 21.772083292385247 8.307836714702052 2.6660555926117504 -1 0 0
72 1 2.492556734924457 11.12245931819694 2.7227567070507446 0 0 0
71 1 1.1033778260446225 12.471266295416637 1.3109588327272266 0 0 0
33 1 3.805431512904489 9.730058443855604 1.2173500446399494 0 0 0
200 1 7.989911296918151 10.859756398777707 2.52369521412434 0 0 0
199 1 6.619389297298754 12.38839018574229 1.158587864221794 0 0 0
161 1 9.469609978005174 9.643760555712369 1.2965744556673728 0 0 0
327 1 12.148831602009118 12.55184682795774 1.4676217710756327 0 0 0
324 1 10.719358287293208 11.220580961886167 0.07239987165884898 0 0 0
289 1 14.944914674512095 9.565982125788619 1.358640412245421 0 0 0
328 1 13.691632228522723 11.135274579383088 2.7201093276445536 0 0 0
452 1 16.1589756094795 11.042482571157326 0.01378358971208371 0 0 0
417 1 20.20071235791331 9.60517959519094 1.3626121908338276 0 0 0
456 1 18.905213244574934 11.08692048549629 2.665943215839314 0 0 0
68 1 21.47543391133933 11.031854648741358 21.717154816811952 -1 0 -1
65 1 3.9071781584507033 14.94345180466448 1.2829855275916464 0 0 0
194 1 5.269748542799877 13.738876054268172 2.6887445107471772 0 0 0
193 1 9.323153886129004 15.137172468682753 1.3215103308421727 0 0 0
322 1 10.949760217606043 13.92411388606331 2.9187891986605536 0 0 0
321 1 14.83691824001008 15.080223817847436 1.495990808549609 0 0 0
455 1 17.632107248730534 12.384492530217742 1.2843368557335182 0 0 0
450 1 16.266499180927696 13.746514835599568 2.7119065956331307 0 0 0
66 1 21.52318243019074 13.884877530057215 2.6928652088719556 -1 0 0
449 1 20.16050549814319 15.306045059415593 1.281384317784978 0 0 0
454 1 18.898319283983597 13.886491399909312 21.647905803090367 0 0 -1
103 1 1.2960436183413628 17.86305423471404 1.275601308671046 0 0 0
104 1 2.6202037072290456 16.264440206266325 2.6577669743909467 0 0 0
228 1 5.393225216034036 16.312045781093012 21.57057454966022 0 0 -1
231 1 6.714772142158952 17.76437812489673 1.1960066081303133 0 0 0
232 1 7.907003851807907 16.32287933826244 2.569496458565472 0 0 0
359 1 12.201956546112847 17.747190422766426 1.307745311411027 0 0 0
360 1 13.550074928557818 16.45853664785424 2.831531918413666 0 0 0
487 1 17.666852251405334 17.7979401051804 1.301409585007607 0 0 0
100 1 21.751440073761035 16.555311832728098 21.69687108020399 -1 0 -1
488 1 18.981058276125143 16.491150429872185 2.6339596868082316 0 0 0
8 1 2.5000597843887538 0.09824586565826561 2.7971707508358428 0 0 0
98 1 0.15777479909700176 19.21146542308471 2.666578159915664 0 0 0
226 1 5.238643568024757 19.049909379202514 2.469309361667095 0 0 0
97 1 3.8882483232839884 20.681459997468032 1.2640567138628198 0 0 0
230 1 8.033718332608037 19.030041050458514 21.607025844749685 0 0 -1
225 1 9.494904974418324 20.2451809530562 1.3794683656682005 0 0 0
354 1 10.760788708139998 19.158473997337552 2.816880598239832 0 0 0
353 1 15.051524756621953 20.50470891905128 1.061791195904672 0 0 0
482 1 16.4559077282246 19.23335432927794 2.7073381799887724 0 0 0
481 1 20.503280067973975 20.560137066148584 1.3934578033505869 0 0 0
47 1 2.7055094171620904 2.876576492038385 5.532453752708104 0 0 0
9 1 3.959942198546689 1.3074441570296305 4.276435918419903 0 0 0
1 1 5.240735439515908 21.567706979007006 5.553834747803897 0 -1 0
229 1 8.551382180563099 0.7449084900932449 4.5325060710003475 0 1 0
517 1 10.932990538578519 0.9654833226633878 4.516728936171104 0 0 0
140 1 11.675900588994466 2.7529561176446466 5.777752359453319 0 0 0
521 1 15.274843159893795 1.2211129831518743 4.257670096331026 0 0 0
300 1 14.001825868698235 2.3541405316135764 5.984316453950207 0 0 0
387 1 20.42132340115074 1.398977534411993 4.236949777044879 0 0 0
398 1 18.923217439508814 2.4786394087170804 5.7243280948057595 0 0 0
5 1 1.2991553086984255 4.284772325318482 4.256237934075268 0 0 0
520 1 5.021769494118056 5.7893289188588435 5.465346443802131 0 0 0
3 1 7.7055840749840305 2.6956820734800444 5.622025072998525 0 0 0
514 1 6.548358535426284 4.4331169045779335 4.2812406276396935 0 0 0
35 1 9.164703318744351 3.54396104873732 3.3516596936266603 0 0 0
268 1 10.805663426392007 4.7232444932331665 4.404680998292224 0 0 0
142 1 9.992036803369142 6.130978906393163 6.116303713486268 0 0 0
270 1 13.660107579816858 3.4845201813177287 3.0078048054600597 0 0 0
131 1 13.19899210099059 5.091986998480755 4.888084649104854 0 0 0
389 1 17.837775711035466 4.035555199370243 4.124286116547851 0 0 0
428 1 16.318682453418052 5.650617991599014 5.355473474374084 0 0 0
44 1 21.74556367388441 5.43527243112644 5.630843065041845 -1 0 0
46 1 2.4002637349041303 8.333950197170894 5.555153776562388 0 0 0
515 1 3.6018557645123233 7.046098638747228 3.9846907513791137 0 0 0
137 1 7.764902164465047 8.18670438064372 5.311327671689359 0 0 0
174 1 9.131888603849632 7.190934182959233 3.9087569165487293 0 0 0
302 1 13.308413019358285 8.35881573784247 5.356606231333485 0 0 0
291 1 14.72936698188185 6.8592604027238515 3.869778777196207 0 0 0
430 1 18.979449832617174 8.385645432058016 5.2495450831789245 0 0 0
419 1 20.474553662502785 6.917995157763985 4.14729889809355 0 0 0
37 1 1.1774891627278334 9.799061219659903 4.154308153616713 0 0 0
204 1 5.359593357157762 10.86869747199142 5.36116915829547 0 0 0
522 1 4.1018537180637145 12.356693450581446 4.085692857370927 0 0 0
67 1 6.53974624498196 9.55528672906658 3.9299320692231317 0 0 0
332 1 10.499399963781936 10.893200563746419 5.293801772835057 0 0 0
293 1 12.157286041948128 9.816302171079018 4.037547114707493 0 0 0
195 1 9.304546824768847 12.414707960605877 3.932764702796478 0 0 0
323 1 14.857670035648013 12.456375932324468 4.24120742404259 0 0 0
421 1 17.51576888452642 9.741732808285684 4.098651478801779 0 0 0
460 1 16.045828608071727 11.01366165106478 5.527279541491998 0 0 0
76 1 21.49359463697696 11.13128239645618 5.371998604683226 -1 0 0
451 1 20.186191718508216 12.52228253165601 3.839836571207402 0 0 0
69 1 1.2444051196327153 14.9157025025143 4.2259017179726905 0 0 0
78 1 2.802356650210562 13.608076284953166 5.491873692256118 0 0 0
197 1 6.681130569158709 15.0332689047593 4.0347484801051285 0 0 0
206 1 8.012300414341553 13.746319367289669 5.4635203049279655 0 0 0
325 1 12.19941599612584 15.253888271187213 4.330330049762807 0 0 0
334 1 13.31437479016835 13.535155405210416 5.5574293205268495 0 0 0
453 1 17.625628923095938 15.18080267405548 3.8573733662933933 0 0 0
462 1 18.881873861980832 13.710673943539126 5.248567428870461 0 0 0
108 1 21.608008515834886 16.26263168242957 5.485822271762318 -1 0 0
99 1 3.9936565829510875 17.60150682700046 3.892463797447452 0 0 0
236 1 5.181114612717411 16.231223385520707 5.487584557317493 0 0 0
227 1 9.243013753195516 17.82954904273248 3.9644909634186325 0 0 0
364 1 10.588502066396124 16.62876006645354 5.463641621212504 0 0 0
355 1 14.990658441406529 17.73773170993288 4.120517903694302 0 0 0
492 1 16.24627555994268 16.313153171519257 5.549390264558031 0 0 0
483 1 20.61624667830838 17.770656360770726 3.8779239306546947 0 0 0
12 1 0.1257483701930866 0.13727162234663837 5.6893488264239185 0 0 0
110 1 2.6843146167198824 18.7835720959491 5.320325735881403 0 0 0
101 1 1.3176511790288732 20.4202681950044 4.139238133232102 0 0 0
238 1 7.883222185877254 19.05168037981729 5.512396437495251 0 0 0
15 1 6.395990035202817 20.354901636215992 4.164035785849653 0 -1 0
14 1 8.697419219856608 21.004806961966576 6.4908602858911495 0 -1 0
357 1 12.113192052075753 20.352416979260973 4.28068825404783 0 0 0
264 1 14.060424679891264 21.238757356961965 3.1868210191471475 0 -1 0
366 1 13.876878664885648 19.158217731290943 5.6398481002001875 0 0 0
396 1 16.44360764055867 21.655186372399662 5.718384526926409 0 -1 0
485 1 17.803115039098234 20.38457057812995 4.255148315851914 0 0 0
494 1 19.211011032857442 19.004396243251627 5.415237134023073 0 0 0
516 1 1.5872133207004195 1.2465439488135355 6.925733690201554 0 0 0
16 1 2.701683655948379 21.519118104484793 8.269237183727077 0 -1 0
175 1 5.394934289454724 2.79604891870216 8.294503522809025 0 0 0
513 1 6.543951362714743 1.3550692962209236 7.154534396491492 0 0 0
143 1 7.98286349834974 21.70091796742445 8.556603120548127 0 -1 0
271 1 11.7213413858815 0.5700850664938629 8.270146871694791 0 0 0
266 1 10.691829134316686 2.647351150834239 8.141324238925302 0 0 0
272 1 13.933341696486613 0.7950523181151656 7.577914128117539 0 0 0
399 1 17.62024330398706 1.1841348503629763 7.199033139184451 0 0 0
394 1 16.1946820601213 2.6486713404219038 8.387600211580974 0 0 0
10 1 0.053578095961011485 2.3364050750723555 8.25270312820971 0 0 0
400 1 19.100501985393734 21.51493833323466 8.409713719113595 0 -1 0
48 1 2.6285161615750887 5.328892030468253 8.190209455100412 0 0 0
133 1 4.060025867894534 4.111528971353693 6.7924130149893625 0 0 0
176 1 8.047115219883995 5.415862785216084 8.373658103244196 0 0 0
519 1 9.106191054674255 3.9002626192807384 6.956741340842234 0 0 0
269 1 11.996867683742163 4.226800332107241 9.262595486205559 0 0 0
304 1 13.386982782230259 5.705761560423265 8.049386578777979 0 0 0
265 1 15.058214400267804 4.47517724286568 6.8136711005861 0 0 0
432 1 19.024520390286447 5.472027887231797 8.036712447734281 0 0 0
393 1 20.476875743478384 3.9843147226809412 6.969538988017361 0 0 0
518 1 1.210482402144776 6.841275106958669 7.12680801973016 0 0 0
42 1 21.495193396503343 8.467790353917568 8.102998904661941 -1 0 0
170 1 5.34735495370112 8.347827227752072 8.280912999132973 0 0 0
141 1 6.619079429432455 6.842980361503231 6.857908991249157 0 0 0
298 1 10.53594612844457 8.421812254394878 8.089585610686235 0 0 0
303 1 12.05490204203869 7.014451331467814 6.731073497894582 0 0 0
431 1 17.66854797728976 7.021061744844436 6.781482398432884 0 0 0
426 1 16.06948191788846 8.231380389840655 8.098304664352137 0 0 0
80 1 2.422735953466903 10.80739887897818 8.294744756328013 0 0 0
79 1 1.1174952321872902 12.137411215945798 6.902140326603519 0 0 0
41 1 3.8923893445599407 9.600524516046983 6.831881445249383 0 0 0
208 1 8.028430188689775 10.854467331437235 8.19500288824295 0 0 0
169 1 9.169039934180201 9.508443341339508 6.679052999949097 0 0 0
335 1 11.834517513507828 12.197378621798403 6.71165760077893 0 0 0
297 1 14.72914471281591 9.708594676416888 6.853833368867233 0 0 0
336 1 13.356801699339936 11.07672619241207 8.039458709972182 0 0 0
463 1 17.56888305386192 12.361029387379748 6.648954910457995 0 0 0
429 1 17.499815932877116 9.505473151299983 9.546147606873287 0 0 0
425 1 20.223330013476176 9.754842783124037 6.710723954754603 0 0 0
464 1 18.712026320142417 10.925837240248494 8.137973507756003 0 0 0
74 1 21.533405387616522 13.69259076791311 8.02411487925493 -1 0 0
202 1 5.385904744295822 13.488216373949756 8.294260183220493 0 0 0
73 1 3.916939889587334 14.714496261184834 6.974985691618571 0 0 0
207 1 6.690972310079957 12.191802413288872 6.697404092242375 0 0 0
201 1 9.51430827758253 15.066032169953019 6.792004515777533 0 0 0
330 1 10.624203803444251 13.555685287787645 8.208685286645023 0 0 0
329 1 14.846149355349267 14.98864418313107 6.874298320824562 0 0 0
458 1 16.16781744755894 13.54986905558112 8.159857177166272 0 0 0
457 1 20.233419772742224 15.025319354537414 6.732518183242088 0 0 0
111 1 1.2383337401716705 17.619845318886103 6.804353643687845 0 0 0
112 1 2.5399047442922456 16.265400141243752 8.257475118790367 0 0 0
239 1 6.563953185066909 17.635163116846925 6.775888866381358 0 0 0
240 1 7.969027428334006 16.132320118401566 8.154723005179976 0 0 0
233 1 10.91156679768849 18.674991359137042 7.987043508929454 0 0 0
367 1 12.538330861561928 17.46283684033727 6.59690875104066 0 0 0
368 1 13.422710779594963 16.08328240729066 8.249474731387933 0 0 0
495 1 17.741591280032186 17.568461555170142 6.773022720938393 0 0 0
496 1 18.991696403555725 16.266279016045203 8.132495279971039 0 0 0
106 1 21.744078204402296 18.87190374958859 8.150514768089943 -1 0 0
234 1 5.3016808661593195 18.926865399360366 8.248209662258176 0 0 0
105 1 3.9029143100733217 20.056469316359053 6.913738970792454 0 0 0
172 1 10.918029508231351 20.785475073632423 6.568319597917524 0 -1 0
144 1 10.12355047351993 20.474699379874654 9.582671355620414 0 -1 0
362 1 12.986504296082163 19.469400316249573 8.630690992976946 0 0 0
361 1 15.17633062861388 20.397076491627722 7.035186170357815 0 0 0
490 1 16.41216035912503 18.87375654737608 8.226100120726919 0 0 0
489 1 20.495221930394504 20.418940830687 6.799627333774679 0 0 0
22 1 2.798401910685764 2.5458503085811484 10.896419434855853 0 0 0
23 1 1.238801844360743 1.3020572332401272 12.151852413226383 0 0 0
11 1 4.173085018869362 1.3040945485729571 9.545640582683697 0 0 0
148 1 5.4136592116032585 21.759954487092568 11.115189040062289 0 -1 0
151 1 6.539819645493213 1.3779545674512992 12.394669783942755 0 0 0
139 1 9.059497495815325 1.8391944428809293 9.83847605185023 0 0 0
150 1 7.869122459126168 3.1363211381811125 11.261627113391757 0 0 0
276 1 10.341691596827609 0.48695203825177225 11.410917029588582 0 0 0
267 1 14.608764542846508 1.3019417762152747 9.83178765257387 0 0 0
278 1 13.266508704821899 2.8580182483972756 10.94706806221147 0 0 0
365 1 12.75920167135784 21.330680835115214 10.643998393513764 0 0 0
407 1 17.659738231416966 1.3992167877638555 12.306294880459578 0 0 0
404 1 16.30305852764949 0.10536101437316603 10.937988578843532 0 0 0
395 1 20.3650112774078 1.101985427440221 9.817524856929058 0 0 0
406 1 19.164076404158 2.72416075055261 10.976491094536138 0 0 0
13 1 1.43257472814263 3.8559612776275696 9.542866015475127 0 0 0
180 1 5.260395403397517 5.491866210432897 11.006231897853688 0 0 0
17 1 4.004143657104121 3.9957105547229346 12.20615708375025 0 0 0
138 1 6.557699908469301 4.1569436047039385 9.65276633121676 0 0 0
145 1 9.470222202441528 4.587906493657211 12.396377917013462 0 0 0
308 1 10.76036571075904 5.671011323261275 10.791422747071511 0 0 0
273 1 14.880819127135329 4.153117223803037 12.296129703534962 0 0 0
397 1 17.762713911015126 4.014523548657775 9.498166244033055 0 0 0
436 1 16.1778418802313 5.420335682234941 10.870090166061514 0 0 0
52 1 0.30059542957203433 5.454302065734953 10.968432370898379 0 0 0
401 1 20.36723700920112 4.09419038494873 12.240140660010374 0 0 0
54 1 2.6031852836415315 8.337153450192472 10.840372330844803 0 0 0
55 1 1.3117845821739813 7.04973343659897 12.431282318952462 0 0 0
43 1 3.965796841134871 7.01871568926867 9.449264022813063 0 0 0
182 1 8.192953153994772 7.991401289303296 11.064637616866689 0 0 0
183 1 6.543710180081288 6.958719780024743 12.340216631463433 0 0 0
171 1 9.321633428056222 6.994173893466668 9.370125743473782 0 0 0
311 1 12.167354293688556 7.006945385174816 12.202765049245903 0 0 0
299 1 14.889299476326592 6.944358635753384 9.518679810227347 0 0 0
310 1 13.455122136344258 8.434274337967114 10.782580114171362 0 0 0
439 1 17.42171713855911 6.814205838928334 12.353292680764389 0 0 0
427 1 20.53511707206811 6.7887380893563565 9.534591308018516 0 0 0
438 1 18.87781788856061 7.985846976604221 11.07396051250705 0 0 0
45 1 1.0885171126419766 9.653189154140428 9.62897360539515 0 0 0
87 1 1.5849571814692591 12.406471403768313 12.367634187183391 0 0 0
212 1 5.526462889511136 10.955798866210337 10.921204418976323 0 0 0
49 1 3.9083361344041263 9.850524620354793 12.145250045816873 0 0 0
173 1 6.906280360268642 9.45236127400144 9.73032535147919 0 0 0
215 1 6.661352419044614 12.291901369605435 12.421551955674717 0 0 0
177 1 9.447851761611009 9.673314976551806 12.365672601562517 0 0 0
340 1 10.690487095836088 10.800594922155621 10.902888030384092 0 0 0
343 1 12.028975830596028 12.125215921017013 12.287011832486272 0 0 0
301 1 12.028925560380745 9.721471940524937 9.3273721700624 0 0 0
305 1 15.002680747094717 9.674929319548639 12.275146290260535 0 0 0
331 1 14.785810966996749 12.33077971756706 9.721903151544552 0 0 0
468 1 16.195903124870817 10.916395452100959 10.789009919156504 0 0 0
471 1 17.600915140630836 12.454043019124182 12.110550579625768 0 0 0
459 1 20.253575000128542 12.312566655056832 9.302240393387844 0 0 0
84 1 21.69273213827173 11.09975632589554 11.07266118512722 -1 0 0
433 1 20.33474489964827 9.669359271643016 12.192508971026879 0 0 0
77 1 1.0194132500441853 14.904914705292386 9.39064257394111 0 0 0
86 1 2.573896360792809 13.64317018074957 10.700275101362287 0 0 0
75 1 3.994225710159452 12.199818966705845 9.601042728392562 0 0 0
81 1 3.678392092615359 14.972177142098765 12.253840232321735 0 0 0
205 1 6.662779435627849 14.952869725526483 9.61922979020494 0 0 0
214 1 7.8922571012700224 13.511298690408793 11.021118071683487 0 0 0
203 1 9.376964970341522 12.083720066364242 9.634743809337015 0 0 0
209 1 9.272123064527612 15.014312904094188 12.188434279900097 0 0 0
333 1 11.96225931510552 14.855230346384769 9.570268354239483 0 0 0
342 1 13.403021767521697 13.636322101962769 11.135340712857193 0 0 0
461 1 17.56753746889409 15.110908451785876 9.562887156919551 0 0 0
470 1 18.950309096543506 13.695691472294316 10.883319868452718 0 0 0
465 1 20.25665429834533 14.979470025541888 12.557443734048318 0 0 0
119 1 1.290226296564956 17.60214717941356 12.230065203454124 0 0 0
107 1 4.051175018459114 17.592674293652685 9.640614985312844 0 0 0
244 1 5.281019725041915 16.362275482835248 11.218134005536408 0 0 0
247 1 6.662854470034819 17.882865420035493 12.479010725650637 0 0 0
235 1 9.280341873240722 17.31255835712547 9.739553033161929 0 0 0
372 1 10.885427250424206 16.262686081786658 10.88379851238393 0 0 0
375 1 12.220141589492034 17.6373713477138 12.375657751691193 0 0 0
363 1 14.802585883677455 17.623395701808242 9.51190582216996 0 0 0
500 1 16.290857973553827 16.39485730538471 10.984587791309115 0 0 0
503 1 17.65756607983055 17.81052586756214 12.360354538232915 0 0 0
116 1 21.587665948936156 16.15674030119314 11.124321464810656 -1 0 0
491 1 20.377406737778696 17.517191932260015 9.550157120727976 0 0 0
20 1 21.767674545773747 21.477276680923094 10.95415376958024 -1 -1 0
109 1 1.4033396757293084 20.21304519452862 9.52444200687671 0 0 0
118 1 2.570104438840934 18.8555160966756 10.918867773245207 0 0 0
113 1 3.913442003560136 20.361623237290136 12.053923316584704 0 0 0
237 1 6.598792708624668 20.370361337828975 9.86124460303443 0 0 0
246 1 8.173563971377625 19.08238781287663 10.960616140133375 0 0 0
241 1 9.445311844176395 20.486028138892273 12.51705801758865 0 0 0
374 1 13.790326585562525 18.936982145725096 11.350150891962878 0 0 0
369 1 15.226783174542259 20.715116863153654 12.425161590389914 0 0 0
493 1 17.669679257659322 20.15789927276302 9.790398900369258 0 0 0
502 1 19.151157581215443 18.854234852869002 11.067953279264524 0 0 0
497 1 20.3808249468704 20.344643898955898 12.340370737722857 0 0 0
24 1 2.5448911005681247 21.763510138156317 13.537856183653952 0 -1 0
19 1 3.797754887919779 1.4889672268424965 14.896864286314432 0 0 0
146 1 5.2815488800576755 2.6674176818638147 13.679064703556149 0 0 0
152 1 8.022058317413187 0.31837933929937484 13.64310793175904 0 0 0
147 1 9.477393619520502 1.6938550392595906 15.068862041861157 0 0 0
279 1 12.068673891761899 1.659146890552547 12.62237145128416 0 0 0
274 1 10.790590104634239 3.142439187487379 13.835285381615389 0 0 0
275 1 14.864229680057678 1.5897446714234562 15.010204177208232 0 0 0
280 1 13.546398989512193 0.14505829893667074 13.733787642648185 0 0 0
402 1 16.382260944754076 2.6757272461197794 13.521012041176789 0 0 0
18 1 21.702657211758034 2.7859120248012927 13.510685886451839 -1 0 0
403 1 20.42042796323926 1.516119922889789 14.970777695773565 0 0 0
408 1 19.087944607462273 0.06254872871877803 13.48140041827621 0 0 0
21 1 1.2587715195926477 4.088680307468406 14.8224195290772 0 0 0
56 1 2.678627013921069 5.530488988072319 13.442211759248405 0 0 0
149 1 6.53414073976461 4.1495780531798 15.08663463655837 0 0 0
184 1 7.8325100225309106 5.797952545252032 13.704946095726124 0 0 0
277 1 12.251842822147271 4.410177892840416 15.139993473585715 0 0 0
312 1 13.574105273192805 5.605179316164674 13.629556927006382 0 0 0
405 1 17.67295164326092 4.016135640376479 14.86697716428512 0 0 0
440 1 19.04404194619994 5.615671516526625 13.563884488531954 0 0 0
51 1 3.8510257350829513 7.072830360570533 14.878670497162958 0 0 0
178 1 5.1130267778189005 8.413401108132271 13.519319787578857 0 0 0
179 1 9.498047419689033 7.143076063721068 15.01880662128431 0 0 0
306 1 10.902362513574223 8.410081672365736 13.632350520954484 0 0 0
307 1 14.977859124967205 6.8897852967243916 15.000160389662712 0 0 0
434 1 16.2457991401785 8.342929357033201 13.654847374393219 0 0 0
50 1 21.560905762065147 8.465471445397855 13.771880835283213 -1 0 0
435 1 20.244724186223678 6.935113169169887 14.906312721072245 0 0 0
53 1 1.0525644936468095 9.673341955883318 15.154674683570768 0 0 0
88 1 2.6284104202689953 10.81599042101402 13.83216411554829 0 0 0
83 1 4.045273258591773 12.422882291798535 15.11375235568204 0 0 0
181 1 6.5379151233197765 9.569444788990445 14.900559535820383 0 0 0
216 1 8.02592762584934 10.986141780050016 13.756233276094989 0 0 0
309 1 12.435008177290856 9.803055315660647 14.994392734634001 0 0 0
211 1 9.513628696451578 12.367448631933785 14.872121563327038 0 0 0
344 1 13.6553124358846 11.077599357528307 13.60887114045237 0 0 0
339 1 15.002495153919893 12.407549465576738 14.833038981130873 0 0 0
437 1 17.68805894943798 9.736559027485614 14.989378712681907 0 0 0
472 1 18.97031525096478 11.049953809828516 13.422492423568015 0 0 0
467 1 20.331113181622467 12.506686555982615 14.834599422463087 0 0 0
85 1 1.2158391088627871 15.121993699674489 15.138397566305073 0 0 0
210 1 5.296837147106308 13.73282447281678 13.640151832630293 0 0 0
213 1 6.610869231474676 15.11283087265289 14.930763049158214 0 0 0
338 1 10.78816264870549 13.734274579790242 13.53704450348696 0 0 0
341 1 12.083379011761167 15.073842757771988 14.919335298369095 0 0 0
337 1 14.925696124161568 15.032518595270997 12.286974259199948 0 0 0
466 1 16.274907043497734 13.664677097106896 13.468602696458854 0 0 0
469 1 17.471627970319677 14.953371871185354 14.923878055812354 0 0 0
82 1 0.06748942422250437 13.769469353089097 13.637542349581851 0 0 0
120 1 2.5320664478729076 16.484611481656426 13.637642028703924 0 0 0
115 1 3.999094428223732 17.690434392846264 14.866467951454856 0 0 0
248 1 8.148039649771448 16.404489797084295 13.789353695731347 0 0 0
243 1 9.409796417696775 17.874015551845066 14.858866811444074 0 0 0
371 1 15.082992929382808 17.865785089251993 15.128620035883591 0 0 0
376 1 13.601868323749 16.30337722459588 13.682840502650905 0 0 0
504 1 18.9902715999722 16.458380576412942 13.83068357960639 0 0 0
499 1 20.46431646558435 17.79400557620062 15.010154500691355 0 0 0
117 1 1.3596718183562615 20.33367721492535 15.04593206246615 0 0 0
242 1 5.186189532362197 19.25744227249784 13.670317589877753 0 0 0
245 1 6.785546468851214 20.51988295862914 14.923979033267972 0 0 0
370 1 10.84528177811689 19.053643152529915 13.668507576412097 0 0 0
373 1 12.117963701980957 20.508459083164603 15.112554717476248 0 0 0
498 1 16.31497022569792 19.354976500115686 13.934574400665833 0 0 0
501 1 17.873335566054678 20.543878849194524 15.055461308819863 0 0 0
114 1 21.738118876735797 18.960663429820574 13.72741123465401 -1 0 0
31 1 1.315305958034355 1.4757278077036768 17.59715050863918 0 0 0
30 1 2.6098770854696762 2.8715342054609034 16.22844904535016 0 0 0
156 1 5.268339894284661 0.0019596649839357383 16.146442510348507 0 0 0
159 1 6.481874198593882 1.149357643733782 17.672448223954902 0 0 0
158 1 7.872244857572662 2.57425601876858 16.4641858795788 0 0 0
287 1 12.099965934961894 1.594109920412559 17.619931339563063 0 0 0
284 1 10.750222218240287 0.15664135615033814 16.389734838604305 0 0 0
415 1 17.592204435095972 1.2526630765726632 17.767166192215637 0 0 0
414 1 18.860580111681212 2.641189017753995 16.36625263035106 0 0 0
28 1 21.72906078750783 0.010995023664523984 16.191456637324702 -1 0 0
25 1 3.8796746750965894 4.217544319300179 17.66296521377815 0 0 0
188 1 5.129359976636066 5.552636075272033 16.19090464432581 0 0 0
153 1 9.182317330059238 4.198520468158369 17.36377666551541 0 0 0
316 1 10.771871044957173 5.744850255097835 16.331898106929724 0 0 0
286 1 13.526698224100107 2.983074972141957 16.272389301564587 0 0 0
281 1 14.845796487959161 4.357514436444 17.62149836099545 0 0 0
444 1 16.330566802118422 5.577277448292667 16.322743625817978 0 0 0
60 1 0.0076568850982561675 5.364145756003371 16.323234404823268 0 0 0
409 1 20.380817400565554 3.9060929181636044 17.631744999011513 0 0 0
63 1 1.1930004037796402 6.8821189444346915 17.529784135550983 0 0 0
62 1 2.5384604006989275 8.318869862718989 16.191596212043034 0 0 0
191 1 6.463062595882329 6.943939738273687 17.495104418558785 0 0 0
190 1 7.95786568383387 8.311286934560327 16.29854007619778 0 0 0
319 1 12.174506776342728 7.163080339349835 17.65825054662454 0 0 0
318 1 13.741791784556622 8.38889379235384 16.352951160209216 0 0 0
447 1 17.826334690859436 6.771759100168103 17.677807059600283 0 0 0
446 1 19.032762156165415 8.393755899835647 16.30879625380987 0 0 0
95 1 1.1129489463388926 12.18686538321303 17.73791822020043 0 0 0
57 1 3.926180211423169 9.69657008000391 17.595916081589582 0 0 0
220 1 5.4019652099314595 10.921343343011468 16.377870210764588 0 0 0
185 1 9.248778135655272 9.83853489886126 17.514716903349708 0 0 0
348 1 10.783861218002517 11.044733337354952 16.203291196918357 0 0 0
351 1 12.16636321432688 12.242679349050414 17.57748028463967 0 0 0
313 1 15.066187792493002 9.68063602165736 17.781660209437586 0 0 0
476 1 16.198155236712562 11.123553493296484 16.404796147875295 0 0 0
479 1 17.55110058961246 12.219492990316544 17.892901232553815 0 0 0
92 1 21.456294249708222 11.036277743048505 16.326065088352276 -1 0 0
441 1 20.165794121756655 9.615001024241177 17.67557885544385 0 0 0
94 1 2.589685486927902 13.759294490986136 16.39742503363548 0 0 0
89 1 4.096651736623056 15.166010577992374 17.649335627413176 0 0 0
223 1 6.634797083364468 12.447174062756128 17.653851021098102 0 0 0
222 1 8.08774257600822 13.76684803211522 16.282210841678335 0 0 0
217 1 9.408751560316622 15.207520901992373 17.648777168144267 0 0 0
345 1 14.94185467219532 14.833018356351788 17.742247252350566 0 0 0
350 1 13.559425686154494 13.713367050303788 16.297317177758323 0 0 0
478 1 18.810097504150978 13.609479494812327 16.300628190770745 0 0 0
473 1 20.370144955223946 14.947445293139598 17.637985051462906 0 0 0
127 1 1.247529242542806 17.795241107177333 17.8904372682711 0 0 0
252 1 5.403804294596577 16.49165943115471 16.37222020352947 0 0 0
255 1 6.791393230574487 17.798363530426077 17.497180764706716 0 0 0
380 1 10.748450147804132 16.562749617679223 16.330153049718653 0 0 0
383 1 12.313085475315953 17.689957623273404 17.599850132279773 0 0 0
508 1 16.21755585539056 16.35727792940856 16.49975950946225 0 0 0
511 1 17.61774982819902 17.679730115551298 17.606961548187616 0 0 0
124 1 21.72303466883226 16.507078088722604 16.569501668072963 -1 0 0
126 1 2.6859495375986486 19.05710798804083 16.318930109888356 0 0 0
121 1 3.9491473301094446 20.56226668672127 17.604917000327198 0 0 0
254 1 8.046320952060833 19.03990670653976 16.118499246610128 0 0 0
249 1 9.256728552847159 20.301245268922187 17.71265237411332 0 0 0
382 1 13.603558591151106 19.07544026710291 16.26713702215796 0 0 0
377 1 15.00120755183258 20.45906148786124 17.64390952067248 0 0 0