LAMMPS (10 Sep 2025)
OMP_NUM_THREADS environment is not set. Defaulting to 1 thread.
  using 1 OpenMP thread(s) per MPI task
Loaded 1 plugins from C:\Users\lmike\AppData\Local\LAMMPS 64-bit 10Sep2025 with GUI\plugins
# LAMMPS input generated from LammpsInputFile with pymatgen v2025.10.7

# STYLES
units metal
atom_style atomic

# SET UP CALCULATION
read_data starting_config.dat
Reading data file ...
  orthogonal box = (0 0 0) to (21.772397 21.772397 21.772397)
  1 by 1 by 1 MPI processor grid
  reading atoms ...
  522 atoms
  read_data CPU = 0.003 seconds
pair_style sw
pair_coeff * * Si.sw Si
Reading sw potential file Si.sw with DATE: 2007-06-11
velocity all create 900 7854111

# CALCULATION PARAMETERS
fix f1 all nvt temp 900.0 900.0 $(100.0*dt)
fix f1 all nvt temp 900.0 900.0 0.10000000000000000555
thermo 100000
thermo_style custom step temp press spcpu cpuremain

# RUN CALC AND WRITE OUTPUTS
dump d1 all custom 100 state_dump id type x y z vx vy vz
run 10000000
Neighbor list info ...
  update: every = 1 steps, delay = 0 steps, check = yes
  max neighbors/atom: 2000, page size: 100000
  master list distance cutoff = 5.77118
  ghost atom cutoff = 5.77118
  binsize = 2.88559, bins = 8 8 8
  1 neighbor lists, perpetual/occasional/extra = 1 0 0
  (1) pair sw, perpetual
      attributes: full, newton on
      pair build: full/bin/atomonly
      stencil: full/bin/3d
      bin: standard
Per MPI rank memory allocation (min/avg/max) = 3.121 | 3.121 | 3.121 Mbytes
   Step          Temp          Press          S/CPU         CPULeft    
         0   900            85818.185      0              0            
    100000   904.88211      21659.985      437.01951      22653.451    
    200000   825.13813      20913.544      443.53331      22259.962    
    300000   905.90649      20348.385      589.76332      20170.972    
    400000   926.43564      21081.804      455.16836      20245.042    
    500000   954.12514      18384.316      464.08973      20121.361    
    600000   920.20695      19238.646      459.21734      20002.899    
    700000   911.27903      19381.039      465.19138      19818.912    
    800000   892.56423      20783.912      444.53912      19742.029    
    900000   939.74162      18786.152      461.84006      19547.036    
   1000000   912.02259      22773.157      469.04311      19317.81     
   1100000   871.0877       22722.392      469.07842      19091.368    
   1200000   884.66352      20194.328      453.41705      18921.136    
   1300000   928.10083      20444.02       462.30299      18714.792    
   1400000   852.69512      21393.118      473.16323      18476.527    
   1500000   910.71699      19505.055      450.61181      18301.788    
   1600000   901.3946       19992.113      451.71105      18118.316    
   1700000   891.3209       21243.827      461.95707      17906.411    
   1800000   897.86178      22163.705      465.23598      17687.048    
   1900000   887.82159      22449.687      448.07461      17503.247    
   2000000   935.95219      20666.393      450.75915      17310.191    
   2100000   902.49673      21311.302      461.35145      17095.233    
   2200000   886.20321      22727.876      456.12763      16888.912    
   2300000   846.36544      19448.657      448.2738       16694.327    
   2400000   943.02002      20942.153      451.62369      16492.128    
   2500000   883.69817      21838.576      459.36788      16277.193    
   2600000   910.56151      20349.119      453.05155      16070.683    
   2700000   944.02575      21014.898      447.34562      15870.733    
   2800000   941.9657       24667.198      456.69088      15657.335    
   2900000   831.34896      21231.652      450.0781       15451.43     
   3000000   906.60841      19668.928      453.97567      15239.988    
   3100000   892.65287      18785.335      446.52152      15036.161    
   3200000   903.63577      19753.968      455.46818      14821.729    
   3300000   907.80357      20924.994      443.8298       14618.675    
   3400000   894.7676       20207.959      460.91439      14398.099    
   3500000   875.63973      20157.839      450.91868      14186.663    
   3600000   930.42839      20334.68       453.17932      13972.685    
   3700000   937.58897      19492.114      445.19169      13765.087    
   3800000   870.06448      21050.349      452.73416      13550.488    
   3900000   906.34309      21252.758      478.04823      13317.273    
   4000000   860.33057      21759.223      458.6011       13098.564    
   4100000   901.75119      19241.354      458.45618      12879.987    
   4200000   849.97717      20668.231      454.41737      12664.109    
   4300000   898.50974      18642.58       468.81693      12439.076    
   4400000   865.00283      23028.881      452.34977      12224.459    
   4500000   946.03259      20609.188      458.49286      12005.936    
   4600000   885.10677      20878.651      443.96807      11795.807    
   4700000   932.37411      20518.936      440.57766      11586.989    
   4800000   918.49558      22145.678      457.79662      11368.166    
   4900000   868.56129      19775.65       465.31722      11145.685    
   5000000   854.53715      22327.361      460.48961      10925.759    
   5100000   913.25405      17615.82       458.87146      10706.678    
   5200000   907.47851      22313.276      454.28197      10489.673    
   5300000   856.01922      22357.978      475.74112      10263.746    
   5400000   905.24556      20646.254      472.57722      10039.6      
   5500000   835.90847      20387.424      462.38238      9819.7266    
   5600000   909.19512      19935.761      439.31765      9608.9037    
   5700000   929.98656      19428.466      447.89027      9394.2046    
   5800000   862.8812       20570.554      439.393        9182.3365    
   5900000   939.07504      22402.679      448.27965      8966.8004    
   6000000   894.1313       20765.514      468.5107       8744.5912    
   6100000   904.40806      19315.363      443.21926      8530.4564    
   6200000   872.30408      20340.082      453.17646      8312.9127    
   6300000   850.96175      20147.6        449.87945      8096.2197    
   6400000   921.17056      20918.164      461.56092      7876.1876    
   6500000   885.93239      20787.65       463.97671      7655.652     
   6600000   917.39647      20049.28       454.52585      7437.5767    
   6700000   904.90392      20707.5        443.08594      7222.2414    
   6800000   858.40746      21801.379      455.72459      7003.6562    
   6900000   935.36665      19967.362      446.40577      6787.1045    
   7000000   906.8817       21660.139      453.08182      6568.925     
   7100000   932.18814      21149.536      456.10362      6350.0769    
   7200000   878.33479      19631.874      451.50319      6132.0865    
   7300000   881.26132      21144.44       444.79643      5915.2356    
   7400000   961.58159      22403.151      446.40596      5697.8844    
   7500000   848.55188      18014.072      452.60332      5479.3332    
   7600000   879.91159      20079.711      449.15391      5261.2549    
   7700000   980.739        21847.662      444.54266      5043.7479    
   7800000   920.68139      20853.223      459.63933      4823.9661    
   7900000   909.96823      17851.662      457.52402      4604.508     
   8000000   899.54734      19390.477      458.10433      4385.0028    
   8100000   931.7961       22611.628      462.64631      4165.025     
   8200000   886.42895      22650.879      470.71185      3944.3276    
   8300000   874.93319      22243.676      479.00734      3723.0755    
   8400000   921.19262      21388.627      475.06215      3502.4509    
   8500000   901.32492      20264.512      501.84054      3280.0824    
   8600000   877.49006      21937.877      490.6263       3058.9926    
   8700000   923.41371      18878.813      515.58119      2836.8257    
   8800000   904.19833      22889.669      509.73805      2615.6032    
   8900000   867.71319      20128.277      554.30841      2392.9938    
   9000000   872.69383      21531.956      542.71091      2171.7506    
   9100000   913.49866      20928.698      623.41076      1948.9612    
   9200000   921.98965      21930.255      641.29578      1727.1389    
   9300000   870.06031      21762.444      681.47328      1506.0416    
   9400000   926.51664      23222.608      711.33242      1286.1332    
   9500000   919.92924      22193.738      722.3587       1067.7818    
   9600000   894.87623      20035.454      714.74218      851.15689    
   9700000   950.00396      21918.156      704.20751      636.17842    
   9800000   919.36599      22731.64       712.68732      422.65475    
   9900000   886.82875      22219.913      733.23251      210.57036    
  10000000   898.61824      21651.341      721.729        0            
Loop time of 20985 on 1 procs for 10000000 steps with 522 atoms

Performance: 41.172 ns/day, 0.583 hours/ns, 476.530 timesteps/s, 248.749 katom-step/s
99.6% CPU use with 1 MPI tasks x 1 OpenMP threads

MPI task timing breakdown:
Section |  min time  |  avg time  |  max time  |%varavg| %total
---------------------------------------------------------------
Pair    | 20689      | 20689      | 20689      |   0.0 | 98.59
Neigh   | 25.699     | 25.699     | 25.699     |   0.0 |  0.12
Comm    | 43.414     | 43.414     | 43.414     |   0.0 |  0.21
Output  | 145.76     | 145.76     | 145.76     |   0.0 |  0.69
Modify  | 64.529     | 64.529     | 64.529     |   0.0 |  0.31
Other   |            | 16.69      |            |       |  0.08

Nlocal:            522 ave         522 max         522 min
Histogram: 1 0 0 0 0 0 0 0 0 0
Nghost:           1453 ave        1453 max        1453 min
Histogram: 1 0 0 0 0 0 0 0 0 0
Neighs:              0 ave           0 max           0 min
Histogram: 1 0 0 0 0 0 0 0 0 0
FullNghs:        19070 ave       19070 max       19070 min
Histogram: 1 0 0 0 0 0 0 0 0 0

Total # of neighbors = 19070
Ave neighs/atom = 36.532567
Neighbor list builds = 33458
Dangerous builds = 0
write_data FINAL_STRUCTURE
System init for write_data ...
Total wall time: 5:49:45
