LAMMPS data file via write_data, version 10 Sep 2025, timestep = 10000000, units = metal

513 atoms
1 atom types

0 21.790885 xlo xhi
0 21.790885 ylo yhi
0 21.790885 zlo zhi

Masses

1 28.085

Atoms # atomic

7 1 1.266508338801625 1.6515634057005055 1.2395636298348336 0 0 0
4 1 0.14891784028458943 0.26439961057100697 21.61416538099064 0 0 -1
130 1 5.213189656721715 2.6939359564678846 2.6047709404766035 0 0 0
135 1 6.916597441549258 1.5020348149743323 1.3356431574516339 0 0 0
258 1 10.77840272490886 2.7001891581928263 2.7655973061240955 0 0 0
263 1 12.40413830776002 1.3131297700712328 1.4876492253459968 0 0 0
264 1 13.766238992225082 21.73591315212349 2.8735509587117822 0 -1 0
391 1 17.448536995540415 1.3301359107088628 1.5710242734729676 0 0 0
386 1 16.129854519798588 2.8638874523638185 2.703989205953226 0 0 0
2 1 21.74326732702903 2.815496450013029 2.7336440706607914 -1 0 0
392 1 18.97704514444346 0.03237309723945291 2.774961128301246 0 0 0
40 1 2.7804740349751045 5.503468017536275 2.8469501863665356 0 0 0
1 1 4.009838328459456 4.19452768744328 1.4451860495358662 0 0 0
166 1 8.265958181953353 5.59835684525117 2.780234837795598 0 0 0
134 1 9.663655307642404 4.3809085323041455 1.3571407753517122 0 0 0
257 1 15.085345523845007 4.25792588435039 1.2412971472073246 0 0 0
296 1 13.754904949002821 5.7308499048867265 2.7631354036377833 0 0 0
424 1 19.196874512154828 5.547799047303618 2.884678371592272 0 0 0
34 1 20.422258183568083 4.164414940029551 1.3554533897854717 -1 0 0
39 1 1.4256346482310636 6.801324960840776 1.3960810715324432 0 0 0
37 1 21.768006886008056 8.014875221656567 2.7468298969060934 -1 0 0
38 1 2.6378740320683485 8.110740577258634 0.057720828948998104 0 0 0
200 1 5.487211921792383 8.306468742833925 2.947867124623851 0 0 0
162 1 6.706815816323671 6.839652669920809 1.4195610210040177 0 0 0
187 1 8.008922718595477 8.10242110702976 0.04720978048146662 0 0 1
295 1 12.168920763697116 6.7824603336234235 1.4361345575894857 0 0 0
290 1 11.026119100726865 8.34412651596251 2.7542246907018675 0 0 0
294 1 13.613883529835832 8.079613758395123 0.00694523527399582 0 0 0
289 1 14.757392290110044 9.455228753252708 1.448533285170788 0 0 0
423 1 17.825147940439425 6.825381629045496 1.3860346768777267 0 0 0
418 1 16.269149257846866 8.065343741980907 2.5828861262232956 0 0 0
72 1 2.3201905308398234 10.969111650687594 2.7686287883353997 0 0 0
71 1 1.2924587592107408 12.417125541153407 1.2696942116435486 0 0 0
33 1 4.054589503765046 9.582573335831004 1.5284690510166374 0 0 0
196 1 5.402650099282769 10.925639200647362 0.039414537737310726 0 0 0
324 1 8.236310955311158 11.008395612536985 2.6190971130763425 0 0 0
199 1 6.668421546349986 12.448553678430244 1.3629742871730957 0 0 0
161 1 9.58214012326126 9.52603578370292 1.2897827060327316 0 0 0
327 1 12.33544101267824 12.17943215439789 1.3594209323366981 0 0 0
328 1 13.63496007625929 10.93547690679998 2.8110966608676144 0 0 0
455 1 17.653899777896406 12.218799300433972 1.2807912414819032 0 0 0
452 1 16.174204541794293 11.004661030256068 0.021662455161429506 0 0 0
417 1 20.47951858433404 9.47117065559375 1.2703335906073305 0 0 0
456 1 18.933236795669412 10.706033379443001 2.701403789747276 0 0 0
66 1 21.694133078701622 13.58221490308289 2.628421891509139 -1 0 0
65 1 4.117129851398795 15.142175457924036 1.342383082282168 0 0 0
194 1 5.356569107169482 13.74887975253598 2.819729311218371 0 0 0
198 1 8.199405046118196 13.828917136027131 0.028820381055364663 0 0 0
193 1 9.522777329156373 15.233188714503084 1.2834539046228943 0 0 0
322 1 10.958418624136145 13.805980741439765 2.5535284866428096 0 0 0
321 1 14.85205582746654 15.094755313827545 1.3919395437372766 0 0 0
450 1 16.378570764787664 13.823202708535373 2.429718147540062 0 0 0
449 1 20.312521839710616 14.950769747726794 1.4419964575659934 0 0 0
454 1 19.0350903118072 13.594409477166996 21.73260656675113 0 0 -1
507 1 1.1853449339898157 17.8249785814762 1.2803130495391952 1 0 1
103 1 2.5672213987601933 16.470232253504406 2.7689198577697516 0 0 0
228 1 5.442781677328021 16.38843976777179 21.75086627917187 0 0 -1
231 1 6.876488012484865 17.882360535194888 1.3395818866132145 0 0 0
232 1 8.073686007584081 16.591295539961568 2.8146879061350094 0 0 0
359 1 12.4614632966051 17.908724474496687 1.522266699057605 0 0 0
356 1 11.062678627352623 16.63420041345012 0.003974191358474816 0 0 0
325 1 13.740287064818238 16.457194465839134 2.903362130895783 0 0 0
487 1 17.755243152276716 17.692428409088077 1.461433822173775 0 0 0
484 1 16.378966116757034 16.168808688075547 0.09369576108912626 0 0 0
488 1 19.186273353297654 16.384262801911337 2.7957399115330697 0 0 0
513 1 2.5756106725099555 0.24474464045744015 2.816057114959566 0 0 0
98 1 21.768147345209684 19.240987898758256 2.732107012054629 -1 0 0
132 1 5.469346565191323 0.13701965970146576 0.1929705875058543 0 0 0
97 1 4.10583291639899 20.590687155780945 1.4008381792883986 0 0 0
226 1 5.2876430379127095 19.02713137406623 2.7329674781602358 0 0 0
136 1 8.172070224990637 0.16289627177691443 2.7038103377109026 0 0 0
230 1 8.386997526983132 19.2267023820127 0.12763950605955188 0 0 0
225 1 9.630066407758825 20.541435391607557 1.5489998660662068 0 0 0
354 1 11.01974363412995 19.104110409988607 2.723525291495771 0 0 0
260 1 11.12943647721654 0.0602242952362295 0.009773450860682223 0 0 0
353 1 14.972770574154874 20.399193251049624 1.3151487935205994 0 0 0
358 1 13.696039069396276 19.29494411160355 21.741304742021946 0 0 -1
482 1 16.410561675104017 19.254549287069878 2.729289870625986 0 0 0
481 1 20.558068396900055 20.693400296598575 1.1449344482183512 0 0 0
486 1 18.986583127976793 19.167047655761476 0.0634826804523075 0 0 0
14 1 2.8610046862854652 2.7764613953280115 5.716016322560547 0 0 0
3 1 4.092653521275431 1.4922068872761889 4.238505145458991 0 0 0
142 1 8.220780834239617 2.77032000507385 5.226180776754586 0 0 0
131 1 9.598333239805239 1.2423667581081113 4.097624171919017 0 0 0
259 1 14.85306593323276 1.706076989196643 4.029978966976001 0 0 0
270 1 13.614144549699315 3.1228122174378834 5.613330977608342 0 0 0
396 1 16.252467975684212 0.10013872428933451 5.378964407997782 0 0 0
387 1 20.315857220311212 1.3427850587059502 4.363285790998148 0 0 0
398 1 18.97355392464093 2.6520568568178846 5.387682887341547 0 0 0
5 1 1.498541583610918 3.988551677563686 4.041116540447444 0 0 0
172 1 5.4546235094535795 5.427826471393034 5.356823186238747 0 0 0
168 1 6.627708285028346 4.007115541873677 3.882018249757224 0 0 0
300 1 10.879267635314234 5.533297117123216 5.3666834483795 0 0 0
261 1 12.255285890789319 4.207775582473302 4.065155746858114 0 0 0
389 1 17.836802518559892 4.123871999901146 4.15691297674477 0 0 0
428 1 16.54848192738596 5.5825634303677765 5.639559631433518 0 0 0
44 1 0.14212664996617974 5.45467735472706 5.443871890645274 0 0 0
46 1 2.8913670824672604 8.27287748097437 5.1987914002784015 0 0 0
133 1 4.196085504780602 6.787754441696659 4.138335911051676 0 0 0
165 1 8.273793731165807 8.2575773520049 5.245008954978886 0 0 0
163 1 9.74014085260504 6.966920889954356 3.9581694959016143 0 0 0
291 1 15.213987585910354 6.926834654473279 4.188594548056182 0 0 0
302 1 13.688973437412946 8.312525548475774 5.297616224548495 0 0 0
419 1 20.517365006089694 6.879202806816268 4.250607881568514 0 0 0
430 1 19.138935838016106 8.185668445377997 5.5515011722606475 0 0 0
35 1 1.317391341409746 9.356948413123451 3.9701420983986324 0 0 0
76 1 21.55442876867549 10.918623396946131 5.266180570164332 -1 0 0
204 1 5.3764550430170175 10.87883662336825 5.505033032911793 0 0 0
67 1 4.096175383814684 12.013269094500012 3.915061341773014 0 0 0
174 1 6.853310504605983 9.789920215993208 4.057407649735269 0 0 0
195 1 9.615308109062562 12.634259613469593 4.067918141333025 0 0 0
332 1 10.86810532960882 10.851080603702867 5.523175085602821 0 0 0
293 1 12.438478353938914 9.665381238216334 4.018811354776503 0 0 0
323 1 15.21143738891394 12.371108961931322 3.811573739471232 0 0 0
421 1 17.628793987409498 9.436524249698538 3.975526148897767 0 0 0
460 1 16.33439921056863 10.782888572369352 5.30319953181251 0 0 0
451 1 20.214125944065607 12.222958907209941 3.9144267116255227 0 0 0
69 1 1.3945714534449394 14.89146424371693 3.869257932791599 0 0 0
78 1 2.9112090976646305 13.648380098364186 5.150299705393175 0 0 0
197 1 6.834633597601724 15.143843471519787 4.150407787355112 0 0 0
202 1 8.103100968435623 13.67511260202393 5.236777638094126 0 0 0
206 1 12.333409332653723 15.066341491092961 4.124391613453877 0 0 0
334 1 13.709159585934065 13.550931229112589 5.166966606556771 0 0 0
453 1 17.734209384755395 14.972098088343742 3.992960735303098 0 0 0
462 1 18.8649704022857 13.556251528974176 5.399135358534427 0 0 0
104 1 5.548538625249384 16.543301355911222 5.598005420435527 0 0 0
101 1 4.110213749035254 17.61959081247438 4.108951040358015 0 0 0
227 1 9.666156975224736 17.591082050957663 3.969801185369754 0 0 0
364 1 10.88419724509721 16.383405498562613 5.304954871015436 0 0 0
355 1 15.082480433107078 17.806446626501156 4.114349257680114 0 0 0
492 1 16.239772995157704 16.200498371564432 5.4615098434107345 0 0 0
108 1 0.05675216272597794 16.228030392152164 5.266981795417749 0 0 0
483 1 20.52308176073329 17.777771164538734 4.058846097258263 0 0 0
8 1 1.268022752354257 20.595645266522645 4.07451088271363 0 -1 0
110 1 2.6202391471415796 19.125174426782852 5.2369694115338 0 0 0
140 1 5.673666914713409 0.25812047894835644 5.33405643793487 0 0 0
238 1 8.200716734835453 18.999845327027217 5.139589795066098 0 0 0
229 1 6.701439392581775 20.46992271871963 3.864610691246415 0 0 0
268 1 10.895606451879328 0.07406623553814762 5.75331512390912 0 0 0
357 1 12.042483258716663 20.467424593163067 4.166156240688449 0 0 0
366 1 13.45436547642865 18.956596422937253 5.195730911809388 0 0 0
485 1 17.83587857862782 20.469942911428245 4.113118540543625 0 0 0
12 1 0.04593012493194303 21.64391083067683 5.668953396891783 0 -1 0
494 1 19.09308261438076 19.137686431838727 5.496840374215152 0 0 0
15 1 1.280979865077225 1.3508231144255296 7.036536194872046 0 0 0
10 1 21.671650283981183 2.805869759433941 8.231263714842338 -1 0 0
138 1 5.669965766868743 2.887590585310494 8.136628439054137 0 0 0
143 1 6.966057647974569 1.5255392785119568 6.821423378510013 0 0 0
144 1 8.310321775275275 0.022935111253012508 8.158524677909815 0 0 0
266 1 10.807166407543644 2.8149722554153063 8.135123465749384 0 0 0
271 1 12.318717544809198 1.557689828523674 6.863278135021175 0 0 0
272 1 13.677142637666385 0.08750661246266106 8.12911598142403 0 0 0
399 1 17.65709623337512 1.4558817350645752 7.0570079846838105 0 0 0
394 1 16.388014636235834 2.937315020002779 8.45816343889285 0 0 0
48 1 2.6578535438692863 5.456094102462021 8.077526779679502 0 0 0
9 1 4.147823058888052 4.141990012029929 6.907351514762109 0 0 0
176 1 8.22474519009021 5.521068230681373 7.990009038241375 0 0 0
137 1 9.53849139504357 4.049397087731905 6.690377410182696 0 0 0
265 1 15.222363166956349 4.357911778046467 7.017464428486823 0 0 0
304 1 13.703823140331798 5.543997207376975 8.085468690438956 0 0 0
432 1 19.174212063953792 5.42165328926353 8.078095678961496 0 0 0
393 1 20.435703320631564 3.9260169717185875 6.630193855659644 0 0 0
47 1 1.5488915935152696 6.892750842182508 6.582908430849901 0 0 0
170 1 5.55457498229831 8.076398307482279 8.09857678360683 0 0 0
175 1 6.828012585050234 6.791599115675009 6.498658635892866 0 0 0
298 1 10.774248711453875 8.187456520258442 8.159321565018736 0 0 0
303 1 12.368302028957546 6.996596743285977 6.7052368347608615 0 0 0
171 1 9.271547146720474 6.885687941592718 9.479920472697616 0 0 0
426 1 16.218763179049887 8.143567495835361 8.238606941714282 0 0 0
431 1 17.813610769536307 6.754276049501156 6.922587373645909 0 0 0
42 1 0.1448055454211925 8.204492280571582 8.043752026817714 0 0 0
80 1 2.5860853826068215 10.844245150527831 8.006485160532986 0 0 0
41 1 4.07380388509494 9.510567855366245 6.751188723693516 0 0 0
208 1 7.865362692643463 10.893834895342243 8.359744059501658 0 0 0
207 1 6.729562215878851 12.301656548899498 6.829150577427349 0 0 0
169 1 9.453726439628161 9.560003704041586 6.932707303298523 0 0 0
335 1 12.316240572019714 12.343008492434812 6.695001048368247 0 0 0
297 1 14.871564370971855 9.709164009781972 6.8783104577725265 0 0 0
336 1 13.578667483583779 11.151839054682295 8.103346812289754 0 0 0
464 1 19.01164781578414 10.735192277517672 8.257535625903149 0 0 0
425 1 20.359833718358903 9.508646355984444 6.8338032687670935 0 0 0
79 1 1.3498139974126313 12.343208102887269 6.578550172035334 0 0 0
205 1 5.125079708061152 13.290035604294873 8.193659125386493 0 0 0
73 1 4.028229469886967 14.941607430503431 6.91188561522371 0 0 0
201 1 9.53340236559936 15.130439294428173 6.599525785650574 0 0 0
330 1 10.744142489076198 13.675762188541379 8.080069943128766 0 0 0
329 1 14.91019054640142 14.824832547654497 6.907986572615488 0 0 0
463 1 17.532187883397526 12.141909158548415 6.717759488647917 0 0 0
458 1 16.341279403906018 13.467048372869257 8.260110080020443 0 0 0
74 1 21.5326508867616 13.569208366016278 8.034576201984315 -1 0 0
457 1 20.211019590174793 15.086165861862316 6.6149301866828605 0 0 0
111 1 1.3530804405426695 17.741607105744627 6.567103389154747 0 0 0
112 1 2.683582802157394 16.549679723272387 8.15595877385611 0 0 0
99 1 8.102689183543212 16.183887704282007 8.262412108847402 0 0 0
236 1 6.991169072643118 17.74539597540942 6.810816976041048 0 0 0
367 1 12.417589426746977 17.881900298731892 6.7920082446798835 0 0 0
368 1 13.694020818771275 16.361257188795406 8.066926422282323 0 0 0
363 1 15.073893118723728 17.603348617172504 9.475074365412636 0 0 0
495 1 17.649795361686742 17.824105880058305 6.658708395132494 0 0 0
496 1 19.035824758941764 16.58183258659936 8.027622896767307 0 0 0
16 1 2.7857324122929104 21.630049764110456 8.285071417505028 0 -1 0
106 1 21.647378182396317 19.0216018728621 7.9855114759728405 -1 0 0
234 1 5.568323183897573 19.036574014463152 7.989593300697273 0 0 0
105 1 4.200203226369893 20.528141981895956 6.827139949336869 0 0 0
233 1 9.575894631141237 20.088232948375655 6.827960158348468 0 0 0
239 1 10.899216787931302 18.981578472943177 8.277151128435001 0 0 0
361 1 14.708313749944768 20.453523366567865 6.545106284367603 0 0 0
490 1 16.143687029346633 19.040841095254667 7.872537720600385 0 0 0
400 1 19.085784651562694 0.021481788752657174 8.401381444708601 0 0 0
489 1 20.183756005843968 20.404127891914523 6.829252381677378 0 0 0
22 1 2.569389258089458 2.7412490503516973 10.84618987189579 0 0 0
23 1 1.4560847471115064 1.2777677859204182 12.230915040316189 0 0 0
11 1 4.136909609311437 1.292728673713057 9.559166043738971 0 0 0
148 1 5.624473449185487 21.608862106844306 10.903972738904407 0 -1 0
150 1 8.103012309393925 2.9606997281236627 10.726620960507457 0 0 0
151 1 6.776554663742249 1.6434480394337332 12.180963265194547 0 0 0
139 1 9.513018492331614 1.553073922192826 9.578602013874631 0 0 0
365 1 12.219449195525055 1.4019742502687382 12.123917175322854 0 1 0
276 1 10.729642595621204 0.21830668026296654 10.831654420468734 0 0 0
267 1 15.081252530718658 1.3684145795533027 9.525320743468734 0 0 0
278 1 13.657596929875867 2.789029174114808 10.879110827659689 0 0 0
407 1 17.75479816874688 1.1061832996000962 12.014718105747884 0 0 0
404 1 16.25409155932392 0.10768798507659483 10.936528182343485 0 0 0
395 1 20.524831066248975 1.3969292333435566 9.724761495824168 0 0 0
406 1 19.161688303650436 2.5735506487681077 10.921247193610649 0 0 0
20 1 0.09431606534574755 21.73228266237443 11.03797955266369 0 -1 0
13 1 1.2055281039623347 4.163148877398554 9.47196370080834 0 0 0
180 1 5.480916186706128 5.499224274413739 10.967226489497621 0 0 0
17 1 4.129320530400739 4.200209602775054 12.116988557003134 0 0 0
141 1 6.667522911777311 4.285665765359251 9.378758849346257 0 0 0
145 1 9.472128290599185 4.056649613451843 12.122661905756841 0 0 0
308 1 10.750092212486305 5.583898385118489 10.741228307383626 0 0 0
269 1 12.287030155166677 4.356970524843182 9.453302724695774 0 0 0
273 1 15.049143398476984 4.158379568780072 12.138339038295134 0 0 0
397 1 17.94271392792107 4.134239625755184 9.56934564276286 0 0 0
436 1 16.432110861028846 5.373590193895072 10.754378485184825 0 0 0
52 1 0.0762983943936284 5.4616617247798525 11.077183797901885 0 0 0
401 1 20.54013042992699 3.938100068775078 12.284952688115222 0 0 0
54 1 2.7065648485717735 8.345020245664085 10.932720675169561 0 0 0
55 1 1.7453114394434939 6.713319195592593 12.324427672990845 0 0 0
43 1 3.991665438784181 6.979703886780547 9.47937957115345 0 0 0
182 1 8.02354250057937 8.239231555148237 11.112739350556959 0 0 0
183 1 6.802023673443318 6.8113850794790345 12.368599382429707 0 0 0
311 1 12.021654985285943 6.852209033748754 12.239329595508707 0 0 0
299 1 14.703632292391088 6.928291351640012 9.49829108666989 0 0 0
310 1 13.430637509780222 8.27722809466554 10.884946909911658 0 0 0
439 1 17.692663874684346 6.690623995781379 12.150518218500464 0 0 0
427 1 20.50138188022747 6.8291473947525905 9.498114768178278 0 0 0
438 1 19.01672610723244 8.048260662003635 10.768936128996689 0 0 0
45 1 1.28614921123722 9.589421561778025 9.452273898376296 0 0 0
87 1 0.2117411325717728 11.492770584850756 10.438778442541546 0 0 0
75 1 3.9416034107979203 11.972546730815377 9.535064632217814 0 0 0
49 1 4.103355613202553 9.537591433275741 12.306165882462771 0 0 0
212 1 5.360510546260126 10.95701690308591 11.044758451769345 0 0 0
173 1 6.661753891539902 9.451014766162771 9.576464332812359 0 0 0
215 1 6.7376863279330195 12.35420480708768 12.30543071898053 0 0 0
301 1 12.106256338957689 9.714422459304691 9.35767627333629 0 0 0
177 1 9.391636273419529 9.688447653558146 12.403275883691991 0 0 0
340 1 10.62564859808273 10.958044321607092 10.64463615674454 0 0 0
343 1 11.993654645388672 12.29223274700674 12.088871191366053 0 0 0
203 1 9.212897477960187 12.456173589478148 9.402395140198106 0 0 0
331 1 15.121018111515323 12.156841810149919 9.813787738186159 0 0 0
305 1 14.948606014442008 9.544180374979563 12.34951253186548 0 0 0
429 1 17.569927922447313 9.429150985850393 9.595192204898323 0 0 0
468 1 16.423674002452945 10.786721586069353 11.102378217225018 0 0 0
471 1 17.712146984362228 12.487169665239719 12.307217591797155 0 0 0
433 1 20.141757389698906 9.293928310940279 12.652798166696932 0 0 0
77 1 1.3796939919852735 15.039799069917041 9.511706991581852 0 0 0
86 1 2.0234033497651445 13.085417819363748 10.466188794036116 0 0 0
81 1 4.035400514910323 15.023274773457846 12.234740013059165 0 0 0
240 1 6.576589959384035 14.883087257025155 9.596248878419814 0 0 0
214 1 7.988758257529069 13.734209419481868 10.899606717791134 0 0 0
209 1 9.65565995546219 15.024117326346866 12.269208670181243 0 0 0
333 1 12.174882738889805 15.16328491862381 9.430056474823951 0 0 0
342 1 13.553509313787842 13.68557198265407 10.925907551780012 0 0 0
337 1 15.066678111890429 15.020943142219258 12.21494450781521 0 0 0
461 1 17.721232919508736 14.956000504240805 9.411630172189982 0 0 0
459 1 20.27241426388821 12.356947303828303 9.46998145832562 0 0 0
470 1 19.06021401358139 13.625461457095103 10.853102987539264 0 0 0
465 1 20.542267309795125 14.983844877900431 12.317144240814125 0 0 0
116 1 0.008042125068758565 16.315312328368176 10.973150235208994 0 0 0
107 1 4.230945653654532 17.83319426164943 9.255776521625364 0 0 0
244 1 5.439690586004648 16.37500528742852 10.863387835866341 0 0 0
247 1 7.017444861361534 17.64255684245922 12.228460444453326 0 0 0
235 1 9.57738672932208 17.632205611499536 9.544199808567964 0 0 0
372 1 11.002148600270823 16.40460541664075 10.975108167262523 0 0 0
375 1 12.289601354862766 17.917265035940535 12.3894204129966 0 0 0
500 1 16.42330557233526 16.311006514343948 10.849146183974607 0 0 0
503 1 17.59177803971255 17.771588077861416 12.09671246108137 0 0 0
491 1 20.51744655127874 17.65389263611398 9.48731300804495 0 0 0
109 1 1.2201987507995944 20.3329147733823 9.436628971225238 0 0 0
118 1 2.7274467361642944 18.98431956868495 10.81485863431404 0 0 0
113 1 4.218131627171736 20.376078267526434 12.207856586954113 0 0 0
237 1 6.875606564891936 20.478220102283764 9.338928940018441 0 0 0
246 1 8.141957073222423 18.91325561119667 10.8723900669482 0 0 0
362 1 12.291070036518667 20.522584035106558 9.579855626337697 0 0 0
241 1 9.4402982584888 20.45157037861928 12.100413693701787 0 0 0
374 1 13.701124386708502 19.1104725361101 10.805864589311994 0 0 0
369 1 15.051115547054232 20.481925106777577 12.271540964399707 0 0 0
493 1 17.459403347129502 20.447976385156952 9.53567180837241 0 0 0
502 1 19.18682982801703 19.07574933876185 10.928939598102183 0 0 0
497 1 20.45162857149369 20.41061020318664 12.219540423879495 0 0 0
24 1 2.864774841346289 21.7302451604297 13.694188011729848 0 -1 0
19 1 4.088556183481961 1.4639182664763672 14.911744143447246 0 0 0
146 1 5.374192183040751 2.927524907780109 13.522203540212816 0 0 0
152 1 8.135068439939943 0.12090386029302636 13.493315372746974 0 0 0
147 1 9.655130002710589 1.2950398630938393 14.7715803972376 0 0 0
279 1 10.866267856649147 2.837635675029765 13.485240970016749 0 0 0
275 1 15.213243254216312 1.2689303335439432 14.912133658408868 0 0 0
402 1 16.520231297926795 2.70513556323172 13.374212808852862 0 0 0
18 1 0.06848695057058052 2.6263837435459956 13.410486461974816 0 0 0
403 1 20.625696748422257 1.272685674220962 14.814681856574657 0 0 0
21 1 1.3355144823236254 3.8818068092562457 14.867647300391658 0 0 0
56 1 2.8120793295709965 5.2837291023354345 13.633934272208212 0 0 0
149 1 6.8987208545947265 3.9186331563467185 14.845814627440006 0 0 0
184 1 8.022833222973281 5.194198989506341 13.443099815891252 0 0 0
277 1 12.2985073170281 4.203182070405849 14.661056690029548 0 0 0
312 1 13.608625291961953 5.640799854482182 13.448096707738834 0 0 0
405 1 17.838448818730615 3.886564589158118 14.91645940397696 0 0 0
440 1 19.01019542995635 5.364350016877011 13.654774768882481 0 0 0
51 1 4.124998274750027 6.668187783543177 14.953123752190614 0 0 0
178 1 5.420616046695869 8.023060414787567 13.7917271674685 0 0 0
179 1 9.365696836456566 6.660535090211415 14.820309936038198 0 0 0
306 1 10.761899116088482 8.234881452208802 13.653719844993908 0 0 0
307 1 14.935161906173684 6.678231604460893 15.029982630275331 0 0 0
434 1 16.319025491302305 8.040510258462017 13.650845984986754 0 0 0
50 1 0.18859046113651443 7.7622853502117755 13.745936726601943 0 0 0
435 1 20.44873403778021 6.716232673210846 15.018943293551011 0 0 0
84 1 0.11240729443067403 10.977437898409951 12.739562571996693 0 0 0
441 1 1.4240850246018038 9.429187662036789 15.033963351632062 1 0 0
53 1 2.693838441308873 10.931480406054334 13.447761232896559 0 0 0
181 1 6.907353370541054 9.41401704569771 15.041847882226621 0 0 0
216 1 7.992019775203179 10.913953402331725 13.6464946178011 0 0 0
309 1 12.445921801205705 9.507728891404001 14.98872666555252 0 0 0
344 1 13.507384098771531 10.950147390286599 13.557225415372038 0 0 0
339 1 14.886560925294676 12.463490545626769 14.872765054185214 0 0 0
437 1 17.50712624268191 9.627392418673544 14.972949716960363 0 0 0
472 1 18.841375895788936 11.045590681959553 13.53020766148206 0 0 0
88 1 2.2649677278846974 13.268699952443937 12.656708062850692 0 0 0
85 1 1.5118942812416798 14.869667214700446 15.146620207044178 0 0 0
83 1 3.9543269958466305 11.975679374291936 15.107285961070513 0 0 0
210 1 5.3159111575327955 13.476811393424763 13.745660434974114 0 0 0
213 1 6.5929851109523545 14.834290568521542 15.285978231930084 0 0 0
211 1 9.521741237710419 12.145470141370811 15.013771383532013 0 0 0
338 1 10.84443194385524 13.493460719429192 13.722590104682157 0 0 0
341 1 12.139092123283419 15.216733962039594 14.92122603585736 0 0 0
466 1 16.33062635052014 13.746273604552119 13.602629858334195 0 0 0
469 1 17.67579361875632 14.894765667395761 14.9026248244653 0 0 0
467 1 20.209404496662536 12.297048745359902 14.975678194178853 0 0 0
82 1 0.0676455083350973 13.57490428255707 13.398848444764173 0 0 0
119 1 1.3640031425052426 17.848230929516156 12.24955654537127 0 0 0
120 1 2.850799667011811 16.467135948895837 13.638056846648583 0 0 0
115 1 4.272978206960668 17.647566792284596 15.02045505469278 0 0 0
248 1 8.019823282508543 16.159017657187174 13.50803383039969 0 0 0
243 1 9.372831564219679 17.71085891315085 14.893345607499745 0 0 0
371 1 14.787859874377402 17.742042373204292 14.881723965825264 0 0 0
376 1 13.608716772937324 16.433155606257973 13.385645496997187 0 0 0
504 1 19.015978856328687 16.324764263262168 13.58870084340933 0 0 0
499 1 20.40776258701808 17.544033174354116 15.1358103578373 0 0 0
117 1 1.3933779243043927 20.37078495307951 14.855810306383503 0 0 0
242 1 5.486386684778296 19.072810353038616 13.616812289497618 0 0 0
245 1 6.871044136925696 20.571303666950456 15.00716544449646 0 0 0
370 1 10.618924147350839 19.080077099197734 13.523809689633406 0 0 0
373 1 12.253604168367957 20.33185813693048 14.868824926598968 0 0 0
280 1 13.543971162538387 0.0046473164320613965 13.514763606226039 0 0 0
498 1 16.23123020154644 18.96919837011746 13.57582340927647 0 0 0
501 1 17.87117510236875 20.3330496310865 14.88337392423671 0 0 0
408 1 18.912778746141477 0.019835542429497366 13.519237679240664 0 0 0
114 1 21.607620226295325 18.959229253191182 13.70431353817897 -1 0 0
30 1 1.4186430540805626 1.2302301825073887 17.74079239405623 0 0 0
158 1 2.558108457930961 2.6866529883585324 16.272610485717212 0 0 0
159 1 6.782277144955384 1.313446114339398 17.84176520325941 0 0 0
274 1 8.137656935365634 2.417569729688604 16.12374775418854 0 0 0
287 1 12.282666249293705 1.4186826132845791 17.59064008448376 0 0 0
286 1 13.702689418584395 2.8462311055297174 16.242045068613773 0 0 0
415 1 17.72481926804853 1.27224723847108 17.478119015447767 0 0 0
412 1 16.368369931883294 21.621304275084775 16.236579837681443 0 -1 0
414 1 19.155439287550834 2.5806495264049008 16.305424035527743 0 0 0
28 1 0.04183585574562443 21.676913679501748 16.330928825434246 0 -1 0
64 1 3.897886956011923 4.096402440916826 17.804209083338932 0 0 0
188 1 5.358822187508319 5.128503965797548 16.340054574608384 0 0 0
153 1 9.430326610497483 3.8826780530054292 17.596142880467454 0 0 0
316 1 10.725369218545142 5.424689380997012 16.2613230846867 0 0 0
281 1 15.18148174514274 3.9894489539918236 17.57201014533558 0 0 0
444 1 16.587467051049398 5.3316447590876495 16.16254872587647 0 0 0
60 1 0.20809286384535142 5.379734810072689 16.28473670595227 0 0 0
409 1 20.496700564777182 4.0594756352558665 17.462202190615393 0 0 0
63 1 1.241289046415218 6.920170134236147 17.629166039249693 0 0 0
62 1 2.910532094580323 8.096955869537927 16.270070616872445 0 0 0
190 1 8.170462968087225 8.04795984489457 16.43794415764448 0 0 0
191 1 6.718319601819516 6.793030773447992 17.803355709933513 0 0 0
319 1 12.361623262571314 6.541535254948082 17.545918276547756 0 0 0
318 1 13.727892793834613 8.001728454317236 16.404783604453286 0 0 0
448 1 17.6106253061124 6.923953900497034 17.704301700416618 0 0 0
446 1 19.058270169760046 8.390627308794006 16.339195939008373 0 0 0
95 1 1.4222614201359585 12.251741125093659 17.63339991207973 0 0 0
57 1 4.283127746213463 9.550901308828053 17.84251514680445 0 0 0
220 1 5.62002009757412 10.931966310999112 16.557583892440686 0 0 0
223 1 7.104491599143536 12.377996812765433 17.87903507952093 0 0 0
185 1 9.73375562534177 9.258856026264223 17.67683360628508 0 0 0
348 1 10.911621975306746 10.753887001349051 16.334866465182127 0 0 0
351 1 12.09897520704641 12.229059284742107 17.772030977453444 0 0 0
313 1 15.007499524662087 9.739214685514748 17.68798247089756 0 0 0
476 1 16.220968574927966 11.023957198724117 16.20143520550881 0 0 0
479 1 17.709952215512516 12.241359228355163 17.622246944977007 0 0 0
92 1 0.057177577267570376 10.906860029811238 16.015771076642935 0 0 0
445 1 20.577882119678964 9.586897862287273 17.527233402039673 0 0 0
94 1 2.8275103612532493 13.538656113306372 16.55891654984738 0 0 0
89 1 4.02170044598373 14.944525298906113 17.90219004319598 0 0 0
222 1 8.170211273769526 13.629333511815084 16.35172091417804 0 0 0
217 1 9.59748247810442 14.785439949449628 17.626738877100415 0 0 0
345 1 15.10081440783815 14.917331948817282 17.65256762972053 0 0 0
350 1 13.351825435754415 13.771128567163245 16.27178571679059 0 0 0
478 1 18.92569762200823 13.676472948535494 16.309406551490568 0 0 0
473 1 20.32261589632777 14.959351547275977 17.739431230508895 0 0 0
127 1 1.4725115331416805 17.671281675239427 17.729568175244005 0 0 0
252 1 5.4082970807254895 16.235633222617807 16.577527094638832 0 0 0
255 1 6.764389369120477 17.804419127053084 17.77488545666486 0 0 0
380 1 10.714743026483383 16.247615911855164 16.207242350408723 0 0 0
383 1 12.246005362597625 17.614377416880018 17.598762316242905 0 0 0
508 1 16.346604803089864 16.3944314942424 16.293077598623228 0 0 0
511 1 17.612935833281888 17.85538332590001 17.894557971147588 0 0 0
124 1 0.07032605101475653 16.216142042806705 16.45299786146194 0 0 0
126 1 2.8706019652646373 19.161306430398355 16.296187396069644 0 0 0
156 1 5.441710630678385 21.745929203358287 16.329308323141845 0 -1 0
121 1 4.129433724654596 20.500946091294065 17.973369605753376 0 0 0
254 1 8.080556499074909 19.254408348790072 16.422334224496097 0 0 0
249 1 9.608687688772527 20.49185192946806 17.650904204511722 0 0 0
284 1 11.004348594934594 21.766512398151384 16.220433066698583 0 -1 0
382 1 13.497085158293018 19.072533972450188 16.4761370533473 0 0 0
377 1 15.086901373072127 20.249450197466334 17.707026226181785 0 0 0
510 1 19.02512512568208 18.9063747153636 16.281273848879366 0 0 0
505 1 20.442773210219027 20.28114101713269 17.577146756085845 0 0 0
6 1 2.744274561117357 2.9676466129113646 21.69857708468133 0 0 -1
27 1 2.804930681513343 21.78514274873226 19.03365173146681 0 -1 0