LAMMPS data file via write_data, version 10 Sep 2025, timestep = 10000000, units = metal

513 atoms
1 atom types

0 21.77481 xlo xhi
0 21.77481 ylo yhi
0 21.77481 zlo zhi

Masses

1 28.085

Atoms # atomic

7 1 1.4273913999468089 1.198118160630142 1.363907425418356 0 0 0
8 1 2.8278828633511153 21.739216732526728 2.8830339256610094 0 -1 0
130 1 5.252629949841581 2.7400151228591554 2.5790104862104255 0 0 0
135 1 6.727293599860379 1.4564739370788877 1.301547561019783 0 0 0
136 1 8.209642482946046 0.21127856974819317 2.549542161401833 0 0 0
134 1 8.075645522627246 2.713838246502167 0.01753695043911563 0 0 0
258 1 11.083333836211231 3.191797818434538 2.660446747015684 0 0 0
263 1 12.316510853441779 1.6298830364231178 1.2810906906859236 0 0 0
262 1 13.727849739537689 3.1202158938019 21.60148385130678 0 0 -1
391 1 17.53051978507853 1.115744293324724 1.364943020160979 0 0 0
386 1 16.372934624066023 2.8927288575022305 2.688645140851933 0 0 0
513 1 21.665492863853377 2.5054101807070874 2.7117531600344664 -1 0 0
390 1 18.836446018875677 2.7385179460009303 0.08111188980598882 0 0 0
40 1 2.389838860685956 5.152270034389102 2.7337943231181265 0 0 0
36 1 21.626646309967125 5.266447475055905 0.04089028160006691 -1 0 0
1 1 3.714664924377987 3.9520586109870943 1.278531762984027 0 0 0
164 1 5.170665280282866 5.437263368185373 0.09766040928372277 0 0 0
167 1 8.182680434366745 5.467601612198652 2.513956318451988 0 0 0
129 1 9.514060620223121 4.178953756805195 1.1552172006250443 0 0 0
257 1 14.855376675632582 4.315803646061757 1.6197753496623062 0 0 0
296 1 13.381866504479312 5.59016368582555 2.653316596439536 0 0 0
424 1 18.995843961353053 5.5424998397437815 2.9051329225862705 0 0 0
385 1 20.268379640794 4.06570854874642 1.6206728148845815 0 0 0
39 1 1.3193042275214366 6.628452620592027 1.3485284885068873 0 0 0
34 1 21.665314066867953 8.139758174587271 2.535639853813574 -1 0 0
38 1 2.5900606297578546 8.158675779427599 21.76502829331656 0 0 -1
162 1 5.289048496532087 8.148337317710672 2.771400461913768 0 0 0
168 1 6.665819773385581 6.687064070544519 1.3936151884738086 0 0 0
166 1 7.764984516511521 7.897484035772509 21.69793077192931 0 0 -1
290 1 10.697090918594803 8.243979891109433 2.5641256518989497 0 0 0
295 1 11.942175602487328 6.856461763629063 1.2906013520692243 0 0 0
289 1 14.710543530626401 9.489200002348099 1.395764350960507 0 0 0
423 1 17.434288374228363 6.751635985336645 1.5205379211698393 0 0 0
418 1 16.05437908322918 8.252106936883576 2.808032605394884 0 0 0
71 1 2.6918363059080774 10.998938538200616 2.4276374943918215 0 0 0
480 1 1.0245559627273981 12.519211744970711 1.2542216494296705 1 0 1
33 1 3.9513969070920147 9.479339634497675 1.398411830037628 0 0 0
200 1 8.113648774629532 10.853525764142804 2.587188836702293 0 0 0
199 1 6.685547936386391 12.157444742851002 1.3477341704331673 0 0 0
161 1 9.273697120535696 9.302678021562254 1.2844309707284205 0 0 0
327 1 12.203354862310881 12.138238811908582 1.3667319964530413 0 0 0
324 1 10.739474654614515 10.782823738648164 0.014684871115805633 0 0 0
328 1 13.49905077512254 10.873688426085192 2.858493909720561 0 0 0
455 1 17.472410290047513 12.241489694127615 1.4958073232268145 0 0 0
417 1 20.016674679195066 9.291526985325836 1.374684534998781 0 0 0
68 1 21.42975992321523 10.80382676327634 0.02796106503037822 -1 0 0
456 1 18.781793050687575 10.97388299058544 2.7751082463668353 0 0 0
66 1 21.59287990764197 13.734312670826807 2.7814859373686303 -1 0 0
65 1 4.17235675468519 14.785857634203307 1.2930478980090785 0 0 0
194 1 5.529676565408715 13.699433046968347 2.7537754090549607 0 0 0
198 1 8.0500858653909 13.667560503768192 21.4739608395038 0 0 -1
193 1 9.487337413488959 14.863927687400407 1.253747710476539 0 0 0
322 1 10.789762293579997 13.592390057316674 2.7393666190922423 0 0 0
321 1 14.903103796898176 14.782696247773147 1.7861062993292747 0 0 0
326 1 13.469625340405962 13.500699160621307 0.12003566576488653 0 0 0
450 1 16.425444308042028 13.605953148618772 3.093960551030294 0 0 0
108 1 20.21310196760323 14.963489745281551 1.3595994612489664 -1 0 0
454 1 18.89932916577903 13.301796226819857 0.11224898693230756 0 0 0
103 1 1.179236475957167 17.422769676440055 1.3402280488993235 0 0 0
104 1 2.7245212996630235 16.268715062859474 2.7125953332006696 0 0 0
100 1 21.468162312706667 16.140675092636563 21.687505135030943 -1 0 -1
228 1 5.464162496325258 16.181529676208783 21.768860165219042 0 0 -1
231 1 6.882796443349946 17.661806706964427 1.246604873931055 0 0 0
236 1 8.38655045559415 16.373456370219056 2.451747345831238 0 0 0
359 1 11.876537152378738 17.671881272925138 1.6224899249425309 0 0 0
232 1 10.715093032259418 16.348647352292733 0.07091593254216827 0 0 0
360 1 13.549856028337308 16.26017994069788 2.8824019310481925 0 0 0
487 1 17.39048468368186 17.538792444625244 1.4311907718640653 0 0 0
484 1 16.16705226831581 15.94415820174083 0.17327486795992897 0 0 0
488 1 18.914829078335092 16.343827597469293 2.886037969954055 0 0 0
102 1 2.5364581869653122 18.840436209796977 0.14762317217852683 0 0 0
226 1 5.52373340085942 19.009173672189384 2.725405312308013 0 0 0
97 1 3.977665130086688 20.16373095143541 1.375029087451602 0 0 0
132 1 5.205603087228693 21.551691654551494 21.73485486955617 0 -1 -1
225 1 9.547335442313356 20.61488335882443 1.299529401056829 0 0 0
230 1 8.318626821099178 19.111965392912598 0.04315361714315458 0 0 0
354 1 10.983014007325373 19.51753048922518 2.9914509593128464 0 0 0
264 1 13.645128400154757 0.03601831351091178 2.685708145270895 0 0 0
353 1 14.778835768213316 20.37246191640138 1.3142132100398782 0 0 0
358 1 13.398417986155112 18.973977629212897 21.711727795838925 0 0 -1
388 1 16.02722290860639 0.20901478872795984 21.49624409804595 0 0 -1
482 1 16.066083753070465 19.083152851612663 2.8857441161514625 0 0 0
392 1 19.143490224293377 21.657456145002637 2.745098941703489 0 -1 0
98 1 0.10222373882331581 18.898788760171175 2.6711288708755014 0 0 0
481 1 20.47675742862769 20.258173426938978 1.276455561260543 0 0 0
486 1 18.932584181791476 18.944916121501688 0.08063902356628883 0 0 0
14 1 2.5186505673470916 2.6318903569320002 5.392152028769317 0 0 0
3 1 4.053817901410882 1.3830178533664461 3.983119458568552 0 0 0
142 1 7.955468227970989 2.607295693523755 5.213479028520894 0 0 0
131 1 9.548004386760134 1.5875070576418224 4.112628258803254 0 0 0
259 1 14.985422974737027 1.5965636035353101 3.9807693865539417 0 0 0
270 1 13.701469050389827 2.8285441357845587 5.582142616970339 0 0 0
2 1 20.365580544052985 1.323051870387887 4.2208616508098205 -1 0 0
398 1 18.858379047735752 2.8225566927593 5.479637530369992 0 0 0
16 1 21.699354915758644 21.476660416451825 5.568090713792967 -1 -1 0
5 1 1.0864617885154355 4.0750725814532816 4.127475090664682 0 0 0
44 1 0.035301930259841185 5.30285946188417 5.542130169423399 0 0 0
172 1 5.289736578642025 5.235952003993472 5.264765356105695 0 0 0
9 1 6.748095374934605 4.154864758162677 3.774603831876762 0 0 0
133 1 10.719416921445994 5.280272960600136 5.4982053580473895 0 0 0
261 1 12.365407986584872 4.16000212377734 4.309796904694404 0 0 0
389 1 17.521848068044307 4.226653145445772 4.28421295895606 0 0 0
428 1 16.084048828858123 5.4592774908888515 5.6018874469735085 0 0 0
46 1 2.576377820857055 8.043566221162985 5.233055536785066 0 0 0
35 1 3.98939534119843 6.53791985842268 3.9459226314997804 0 0 0
174 1 8.108653160708165 8.33086299028866 5.378620905300641 0 0 0
163 1 9.364901956114375 6.85695292383715 4.084774491314412 0 0 0
291 1 14.839684890009309 6.730064878199796 4.118075271453893 0 0 0
302 1 13.361020904631735 7.933294005292459 5.379519872002377 0 0 0
430 1 18.967143840953845 8.367844859223995 5.303288589505613 0 0 0
419 1 20.61402411741266 6.97721586521006 4.2585726877932695 0 0 0
37 1 1.3729711916708747 9.34259630973041 3.805957704089965 0 0 0
76 1 0.0011958085304115684 10.79577658415562 5.331975749868567 0 0 0
204 1 5.326462346206728 10.798308069237885 5.412930684966777 0 0 0
67 1 4.094002069428988 12.273916028220029 4.063649150773492 0 0 0
165 1 6.8186892009166975 9.544942169082123 3.9790794654390043 0 0 0
195 1 9.312684216352647 12.09125440878504 4.080071504146277 0 0 0
332 1 10.695786603203258 10.832621445310293 5.507378223334488 0 0 0
293 1 12.116081370377204 9.643221150890819 4.052498879253908 0 0 0
323 1 14.82461951312418 12.120837825294053 4.335543108261726 0 0 0
421 1 17.391041266647754 9.623103240852625 4.048892051884088 0 0 0
460 1 16.130711182262207 10.779376241252018 5.777435172542049 0 0 0
451 1 20.326308557811377 12.228224076238764 4.072087981334666 0 0 0
69 1 1.1950825294010068 15.075193779000434 4.297088670295139 0 0 0
72 1 2.7194825226978314 13.439189254766463 5.431154492659048 0 0 0
197 1 7.105731541879218 15.113408547632575 3.9450205298706478 0 0 0
206 1 8.311099420908628 13.548745754021969 5.528631534383318 0 0 0
325 1 12.012179834360943 15.104059323406048 4.158772834739082 0 0 0
334 1 13.299766597634889 13.761409388206868 5.538119982709361 0 0 0
453 1 17.837622335599004 14.950947528852014 4.262053801024824 0 0 0
462 1 18.83919795963478 13.530928418867605 5.6715738141236045 0 0 0
99 1 3.9441685876562596 17.824483398783933 4.032425093928655 0 0 0
78 1 5.4479779181053924 16.316260021973328 5.216708689868489 0 0 0
227 1 9.50043619031557 17.889565036841606 4.000726506559936 0 0 0
364 1 10.853867083674308 16.485431950969126 5.522688914275256 0 0 0
355 1 14.936541881914483 17.680936766047346 4.130641427407939 0 0 0
492 1 16.196146376378127 16.304314076512696 5.587963428453093 0 0 0
457 1 21.54504384487765 16.43305002596564 5.570927016534463 0 0 0
494 1 20.122679990821652 17.91085602328863 4.129370845106362 0 0 0
110 1 2.5102378774493066 18.851846800817476 5.3849637349039 0 0 0
101 1 1.2805574113262612 20.315873648851586 4.054306708327248 0 0 0
140 1 5.389786839438927 0.06434542140144973 5.258227224185417 0 0 0
238 1 8.030214147364223 19.142145467286284 5.350401232011934 0 0 0
229 1 6.840315947941291 20.592985438733827 3.8323200971358693 0 0 0
268 1 10.878242128661029 0.302067840413784 5.536953245901514 0 0 0
357 1 12.387055772178378 20.57048783455779 4.319537069150496 0 0 0
366 1 13.687953816769566 18.98713918934696 5.491748471998133 0 0 0
396 1 16.314966037115255 0.010682216867027675 5.510240723102159 0 0 0
485 1 17.607304963176556 20.42740429187658 4.272537091217359 0 0 0
483 1 18.970787835228755 18.847437251032385 5.652937868737205 0 0 0
12 1 1.2485502390072232 1.1966580415845591 6.969968621714362 0 0 0
144 1 5.512294443488776 2.5527193838140536 8.157630614006568 0 0 0
143 1 6.818468685210281 1.2387502546087734 6.735493602403337 0 0 0
266 1 10.819329031369147 2.750583301211882 8.222423403958658 0 0 0
271 1 12.419822308636881 1.5721433827353197 6.983571043722663 0 0 0
272 1 13.65904118903479 0.11181816210741147 8.365246265580724 0 0 0
399 1 17.732764834253462 1.334119587366671 6.912562353238865 0 0 0
394 1 16.403905883599204 2.8442458741408445 8.329682221061082 0 0 0
387 1 21.756139406268193 2.605148250587734 7.930430053934359 0 0 0
395 1 19.152609744142612 21.694544153059923 8.222742857032866 0 -1 0
48 1 2.6579805078285523 5.174499744418357 8.225469556493481 0 0 0
138 1 4.059973548549898 3.8747909620486936 6.727383613466439 0 0 0
176 1 7.9882001550733515 5.344246460528243 8.215591128335669 0 0 0
141 1 6.777512079660362 3.8752286436485925 9.503572462619749 0 0 0
137 1 9.333914971580292 3.8445209536529323 6.7990632290501845 0 0 0
300 1 13.409254027556765 5.3475025954674 8.210959574648184 0 0 0
265 1 14.919443363097448 4.054099662661725 6.897222369643097 0 0 0
393 1 19.052076220129337 5.530771853897565 8.174936736684742 0 0 0
432 1 20.239690661080825 3.9793765257267406 6.913416437010658 0 0 0
47 1 1.298708007627324 6.832427382800257 6.774202436483818 0 0 0
42 1 21.58054528192664 8.136543920317392 8.093394364584297 -1 0 0
170 1 5.329907596678632 7.882033545168513 8.129140793422922 0 0 0
175 1 6.6890335628218 6.550744861777034 6.630500897029807 0 0 0
298 1 10.614474705955733 8.144304225896155 8.116212441745773 0 0 0
303 1 12.023304334766154 6.6767652961337625 6.8480807375360175 0 0 0
169 1 9.34926950888276 9.577105372395488 6.902185670900451 0 0 0
431 1 17.752082204375963 6.854499503139723 6.7782210118852335 0 0 0
426 1 16.233246106295287 8.10018028632952 8.156314669023667 0 0 0
80 1 2.5045182282317686 10.744159734163699 8.293342800371326 0 0 0
41 1 4.069701872077845 9.386312370205987 6.692789056475266 0 0 0
208 1 7.924547308581101 10.824837134519287 8.286610436875376 0 0 0
207 1 6.731649707922066 12.33945915300313 6.820510908746936 0 0 0
335 1 12.124813658863323 12.145052658131972 6.819317142433015 0 0 0
297 1 14.675022467899588 9.493915344642895 6.939874426563614 0 0 0
336 1 13.322113194782562 10.702081282309045 8.261311525689479 0 0 0
463 1 17.445781664306978 12.226368467977288 7.108015969076395 0 0 0
425 1 20.39536516082841 9.609510518093714 6.882586300447678 0 0 0
464 1 18.955467135858044 10.840767085032995 8.365025181953339 0 0 0
74 1 1.2394269656175272 12.189720990370025 6.89992592261071 0 0 0
77 1 1.426188347430668 14.841369367401 9.65727883539863 0 0 0
73 1 4.092702057242407 14.840458683098237 6.8453783389933704 0 0 0
202 1 5.3797128579679665 13.59987254718232 8.281168876583212 0 0 0
201 1 9.51855388267909 14.9571681907593 6.863172135281827 0 0 0
330 1 11.01155987924741 13.54062032014347 8.255770826095345 0 0 0
329 1 14.851736096748962 14.924792629505895 6.943192296308451 0 0 0
458 1 16.045347299259138 13.571732918681437 8.284070389343098 0 0 0
79 1 0.03836422305880305 13.576880259420728 8.122944622643269 0 0 0
116 1 20.366134776911164 14.991789358685567 6.895351006714204 -1 0 0
111 1 1.3695982920086265 17.64015872269438 7.054266687601453 0 0 0
112 1 2.8781003616080882 16.1075761829503 8.251642642426631 0 0 0
239 1 6.859194793471028 17.738589572790442 6.787189618689812 0 0 0
240 1 8.143381790258065 16.28519797116769 8.17614936881999 0 0 0
367 1 12.139343316055562 17.743299596592117 6.983344197699367 0 0 0
235 1 9.335423190191522 17.827048151858705 9.399731894473545 0 0 0
368 1 13.393493125721307 16.25861080801768 8.144853010994384 0 0 0
363 1 14.74266499030489 17.81890505233863 9.520694096420874 0 0 0
495 1 17.573341958272724 17.51004756791934 7.023791408726516 0 0 0
496 1 18.919614734886483 16.09817629797385 8.366642352783371 0 0 0
491 1 20.452048382683586 17.477498124177192 9.704825449533777 0 0 0
109 1 2.75754413738675 21.480526442020818 8.17552900052648 0 0 0
234 1 5.454479594257587 19.086057049370847 8.056161306910662 0 0 0
105 1 4.143896876115039 20.278291389700602 6.5827325584476535 0 0 0
237 1 7.9748095224661615 21.563958199842855 8.244225690342189 0 0 0
233 1 9.379020663050326 20.403716605776825 6.4734798490783865 0 0 0
362 1 10.521823659078482 19.29865683568896 8.105272522782148 0 0 0
361 1 14.861993938532944 20.38536525588242 6.861302373922315 0 0 0
490 1 16.266247602425324 19.044904613657174 8.24405472414469 0 0 0
489 1 21.759731105888893 18.99033630751152 8.351886464881579 0 0 0
400 1 20.362719741447666 20.335620474680493 7.008232466069404 0 -1 0
22 1 2.7441969588850452 2.385531685708769 10.870210060435571 0 0 0
23 1 1.2943011328424803 1.1106484788240973 12.336160516350876 0 0 0
20 1 0.08717904430220713 21.66035169323675 11.064903324421335 0 -1 0
11 1 4.138582846028205 1.140656482885266 9.536936115000875 0 0 0
148 1 5.571300615096161 21.657796166012215 11.00834642562735 0 -1 0
150 1 8.103698035940436 2.6643129762233624 11.02428054777361 0 0 0
151 1 6.790179206039746 1.2689126063826148 12.517125541292286 0 0 0
139 1 9.31516715457867 1.3143206611086 9.43755147770965 0 0 0
279 1 12.181127415886204 1.2508914864904637 12.330909900972319 0 0 0
267 1 15.019346657152726 1.5002290005526209 9.763453094964412 0 0 0
278 1 13.65288264876662 2.705429956975303 11.120002219417042 0 0 0
407 1 17.89073907282226 1.221389279929077 12.062804081124368 0 0 0
404 1 16.470760153972385 21.753198494499195 10.888012692703283 0 -1 0
10 1 20.582117864956935 1.2952260995067966 9.578839843743653 -1 0 0
406 1 19.30755069104633 2.7672476619858175 10.801904790174182 0 0 0
13 1 1.271520967724383 3.817812961784267 9.482080170888151 0 0 0
52 1 0.1535836345839563 5.382094072743366 10.795460991642535 0 0 0
180 1 5.282866050089214 5.231460880121117 10.99897111101206 0 0 0
17 1 3.794136778534254 3.8055079512377383 12.165703304576455 0 0 0
145 1 9.461110977012355 3.992079054508715 12.130094349715437 0 0 0
269 1 12.163413854169214 3.9554573533169535 9.608291357659326 0 0 0
308 1 10.639894754544233 5.37537075365045 10.86305263492061 0 0 0
273 1 15.016378260074672 4.041526234152755 12.374687617551043 0 0 0
397 1 17.81463624768609 4.158114790402955 9.689183507917436 0 0 0
436 1 16.256548868984925 5.268877180341194 10.962003999461993 0 0 0
401 1 20.528192283868496 4.217971605201742 12.249000352231823 0 0 0
54 1 2.528981368745286 8.094089972899706 10.887138412049811 0 0 0
55 1 1.3177301870245859 6.906986515928593 12.419694517497488 0 0 0
43 1 3.8681542535121505 6.558806510739861 9.66786891934414 0 0 0
182 1 8.313120826918134 8.025220465907347 10.739519076239558 0 0 0
183 1 6.943370897572601 6.518321180757019 12.207048640015168 0 0 0
171 1 9.247181120460805 6.61814290873727 9.42901638580566 0 0 0
311 1 12.15917187766083 6.763183604616061 12.277784871409517 0 0 0
304 1 14.992918744304777 6.656638182024173 9.485194260767573 0 0 0
310 1 13.678030340208226 8.232261478550047 10.847178793997955 0 0 0
427 1 20.446790834917433 6.740366635745561 9.50221849517169 0 0 0
438 1 18.882419507535378 8.057321848376816 10.702612831583199 0 0 0
45 1 1.1097060647946193 9.445597741286843 9.743994555778002 0 0 0
87 1 1.3437282959610253 12.032357418706827 12.471861810818048 0 0 0
49 1 4.234217559367736 9.39529745427346 12.171825062279549 0 0 0
75 1 4.121066769064758 12.145726094435807 9.70407778459271 0 0 0
212 1 5.597697181366499 10.812542794730417 10.969609922463466 0 0 0
173 1 6.709633579313188 9.331255737752935 9.522977493876866 0 0 0
215 1 6.827995766496531 12.283183071869407 12.11433445794601 0 0 0
177 1 9.545031630137682 9.412012550476083 12.075654787545883 0 0 0
299 1 12.074730864095761 9.361846488915349 9.560413169537092 0 0 0
203 1 9.516135203253542 12.168037000314284 9.559857696410722 0 0 0
340 1 11.0059527044812 11.05986115748192 10.91980990172545 0 0 0
301 1 12.18000733827209 12.373722080927132 12.40854305582456 0 0 0
331 1 14.647362636500382 12.253100502549062 9.49487737589508 0 0 0
305 1 14.776708062945083 9.596456419219079 12.304028992595896 0 0 0
429 1 17.37777657734177 9.544099060549676 9.52566707179168 0 0 0
468 1 16.133039276025123 10.86703640841005 10.840218617952539 0 0 0
471 1 17.594162629459092 12.001156356957761 12.123709286374002 0 0 0
84 1 21.648368893978116 10.775740021768415 10.983205626796618 -1 0 0
433 1 20.08638328329491 9.42555014549461 12.295169975500766 0 0 0
459 1 20.35751430503216 12.245519095068095 9.56038176585809 0 0 0
86 1 2.607911525100594 13.494053408365527 11.214655073158326 0 0 0
81 1 4.225107164201759 14.820105605813863 12.324888500931086 0 0 0
205 1 6.711682006798652 15.04396473975998 9.550857404277469 0 0 0
214 1 8.24139525494276 13.724170821532104 10.824943058703747 0 0 0
209 1 9.461680795217879 14.930029255763504 12.173016780113116 0 0 0
333 1 12.097663918721874 15.22269766866968 9.599591683668075 0 0 0
342 1 13.456792933534446 13.791546317701966 10.911251114319091 0 0 0
337 1 15.044392527411615 14.971373467696079 12.12470135824326 0 0 0
461 1 17.555875361648646 14.93988955249914 9.669747175663113 0 0 0
470 1 18.944587691620388 13.560378359764618 10.937941196019727 0 0 0
465 1 20.404036132752722 14.845236185613233 12.400220099369633 0 0 0
115 1 1.467405800386702 17.57472657021262 12.219399853908438 0 0 0
107 1 4.084619517740949 17.6779082749034 9.391597760082302 0 0 0
244 1 5.310786061554149 16.29434807170804 10.931771030139949 0 0 0
247 1 6.817977989777107 17.645702880642947 12.355397792759602 0 0 0
372 1 10.776791974167972 16.470639073445415 10.861563143577127 0 0 0
375 1 12.019907204347252 17.945954275040958 12.118009738186561 0 0 0
500 1 16.13560175015677 16.501587494160535 10.806914820605177 0 0 0
503 1 17.587259326053307 17.818950793517175 12.288365004179937 0 0 0
82 1 21.754118490685144 16.216436776738195 11.0282169694572 -1 0 0
106 1 1.1724174357145656 20.331565074390543 9.737220068486419 0 0 0
119 1 2.71263517716951 18.94925915196006 10.865651327835863 0 0 0
113 1 4.262897794432653 20.260456749472286 12.285370080491852 0 0 0
15 1 6.781435232838904 20.25245284764739 9.636166901960525 0 -1 0
246 1 8.2002827322614 19.143722421378918 11.084370795335458 0 0 0
241 1 9.604831849521602 20.43259447030206 12.289088891907488 0 0 0
276 1 10.80097995712562 21.756414496705872 10.874204033599192 0 -1 0
365 1 12.138496873979834 20.530707120692558 9.567445749339868 0 0 0
374 1 13.461532967887194 19.347977707880244 10.944489650132915 0 0 0
369 1 14.719968697001171 20.647459132668665 12.33061257799439 0 0 0
493 1 17.70801603897374 20.258902544945133 9.527665550751593 0 0 0
502 1 19.14657930938277 19.124673394871916 10.918447159755475 0 0 0
497 1 20.45592088532312 20.387989319181983 12.386366034392127 0 0 0
19 1 4.076847012537349 1.3065834899477238 15.065842184674244 0 0 0
146 1 5.365790512623648 2.777943236610274 13.628503689658233 0 0 0
147 1 9.334686662178338 1.427121442794759 15.075005368941916 0 0 0
152 1 8.231404005849122 21.51160113858003 13.792154520980366 0 -1 0
274 1 10.740762325147784 2.7875882315522182 13.631148372211342 0 0 0
275 1 15.133360508139276 1.4528664932604847 15.078947161336888 0 0 0
402 1 16.46487131066573 2.6185000483433223 13.517579377120379 0 0 0
18 1 0.04898979950423055 2.8255798057987915 13.46031061855602 0 0 0
403 1 20.532842210569953 1.5865042073482811 14.742958157859928 0 0 0
21 1 1.343971980962217 4.002892571705352 14.958151753995178 0 0 0
56 1 2.754133370727843 5.414466447355563 13.710658091261728 0 0 0
149 1 6.624993934197712 3.941703645893761 15.110482523819766 0 0 0
184 1 8.154935632363578 5.327138981268014 13.759836265155958 0 0 0
277 1 12.183411076298325 4.106483542670302 14.990131675082525 0 0 0
312 1 13.54860943394437 5.338172551279156 13.533370329301155 0 0 0
405 1 17.775860370180354 4.02040080164574 14.826436932466537 0 0 0
440 1 18.997748668560703 5.50160662273211 13.56887806313915 0 0 0
50 1 21.681710275010246 8.194439835879296 13.794360953127585 -1 0 0
51 1 4.2201872327485646 6.742072037359976 14.859646736957805 0 0 0
178 1 5.460486648361232 8.048663224389218 13.371931233073617 0 0 0
179 1 9.544522170100903 6.875531220790204 14.979055408371707 0 0 0
306 1 10.806501759904878 8.243737602218202 13.531797377142379 0 0 0
307 1 14.756041981662834 6.89495699347143 14.760913895400215 0 0 0
439 1 17.56785659517697 6.7651920884630385 12.151181195569263 0 0 0
434 1 16.254227276483068 8.304854482129503 13.497653912540674 0 0 0
435 1 20.405156546525088 6.7194421220626595 15.009312206895887 0 0 0
57 1 1.4905568410622392 9.489062291813607 15.156654447287783 0 0 0
88 1 2.773600652361093 10.745454093136 13.670682882210182 0 0 0
83 1 4.181583004309211 12.145155910141554 15.00416480550843 0 0 0
181 1 6.945288241283124 9.374358525610186 14.864025001214845 0 0 0
216 1 8.150465086873051 10.852980345266264 13.494926394591513 0 0 0
309 1 12.256010177872103 9.668902131405487 15.04030213294031 0 0 0
211 1 9.36830988484735 12.20910505529225 15.178871449789174 0 0 0
344 1 13.483756463154704 10.940948047965144 13.638893791390977 0 0 0
343 1 14.966917790737748 12.31620573905 15.064953512168536 0 0 0
437 1 17.72486922129873 9.59364977988865 15.152069597642301 0 0 0
472 1 18.91873374442373 10.881825695682922 13.648205544227272 0 0 0
469 1 20.37565177823039 12.288976771601721 15.008032388157378 0 0 0
120 1 1.3175691586797746 14.808539760073675 15.051128647625948 0 0 0
85 1 0.01732500197098119 13.549676022287567 13.694071572532799 0 0 0
210 1 5.435684117461544 13.654816133510288 13.72405280285522 0 0 0
213 1 6.859307353412595 14.891864884376313 15.035939986910988 0 0 0
338 1 10.74764457010167 13.83202766574242 13.661470491578314 0 0 0
341 1 12.162552530595578 15.169978743238438 14.782445278221012 0 0 0
466 1 16.485489134364606 13.448850554943894 13.542256157526008 0 0 0
508 1 17.932897128185427 14.727249483829814 14.903696298100618 0 0 0
118 1 2.6258803683101504 16.09596733900635 13.660429263795743 0 0 0
252 1 4.009446650152719 17.449021523794293 15.094287952422393 0 0 0
248 1 8.16987844765691 16.206405744959262 13.612867094362592 0 0 0
243 1 9.467441222391871 17.513278395089444 15.00791150446627 0 0 0
376 1 13.64975167982053 16.44061610122542 13.47113140032905 0 0 0
371 1 15.05001188636862 17.655622261092955 14.834116349023724 0 0 0
504 1 19.047760810490985 16.260723129243853 13.524936392515869 0 0 0
499 1 20.311853731995008 17.52331211219743 15.066232014341363 0 0 0
24 1 2.746964733585754 21.509323286117247 13.624171788573918 0 -1 0
117 1 1.1077718759038626 20.265938496133415 14.99008954478499 0 0 0
242 1 5.504634457569045 19.029137941625784 13.776365233062466 0 0 0
245 1 6.631235717951183 20.457836220600033 15.085530699026743 0 0 0
370 1 10.677155336572262 19.080226006964015 13.705042201883169 0 0 0
373 1 12.281422337276625 20.50311557421479 14.81287816097942 0 0 0
280 1 13.597578902041406 0.14977512990627667 13.78334588982685 0 0 0
498 1 16.21587091906378 19.140052976557012 13.658514933654555 0 0 0
501 1 17.843127105813227 20.231691157930076 14.815855554163033 0 0 0
408 1 19.11156807704898 0.10306219322506038 13.640462118390063 0 0 0
114 1 21.76918711877682 18.849129969314014 13.708094956421302 -1 0 0
31 1 1.246663656392494 1.1799667973367431 17.82210318986991 0 0 0
30 1 2.675091981785239 2.5465266543715215 16.38205686024889 0 0 0
156 1 5.3269298361166975 21.774465590640315 16.500676451172275 0 -1 0
159 1 6.799121747350965 1.4665888489239491 17.607967032477138 0 0 0
158 1 8.064600509354731 2.7647382672463015 16.360247445571147 0 0 0
287 1 12.40431694480195 1.3476320834930424 17.759670440049558 0 0 0
286 1 13.627227304584721 2.6998529919249754 16.41858002222843 0 0 0
415 1 17.676651766075196 1.4485707718216345 17.615349546168698 0 0 0
414 1 19.119401749216877 2.718732751649265 16.220375949251782 0 0 0
25 1 3.885598663679076 3.910818230127263 17.857602263765607 0 0 0
188 1 5.169485062537746 5.123873037086485 16.300347645710865 0 0 0
153 1 9.481168011564089 4.005689566264194 17.81612152947371 0 0 0
316 1 10.715687651496179 5.186167888931375 16.233265301783803 0 0 0
281 1 15.047013707978223 4.121132776249576 17.46530867996225 0 0 0
444 1 16.338406802942306 5.444127886684039 15.947765336201806 0 0 0
60 1 21.696867508535906 5.445667313712424 16.40422767384786 -1 0 0
409 1 20.26499339162102 4.078337239754764 17.761159305584922 0 0 0
53 1 1.1310124411453744 6.835892418173234 17.73507761761023 0 0 0
63 1 2.7126476410119773 8.10165088826836 16.430836122017716 0 0 0
62 1 4.090429343923196 9.507106915147286 17.739047718758673 0 0 0
190 1 8.24459376717502 8.057456409251742 16.219830966619977 0 0 0
191 1 6.853916862494695 6.667319928657769 17.544890950003467 0 0 0
319 1 11.918583395353822 6.673513271335115 17.555609596740947 0 0 0
318 1 13.459719834951683 8.055158708254824 16.143347168045718 0 0 0
447 1 17.525538006718495 6.699345336663735 17.577097380108757 0 0 0
446 1 18.97917638724915 8.154566821187364 16.548087486522746 0 0 0
92 1 1.5156451353550298 12.149681519407366 17.70771508550155 0 0 0
467 1 21.7492641093501 10.790524483247179 16.351996564982823 0 0 0
220 1 5.368093474117694 10.772304889292784 16.2596984765033 0 0 0
223 1 6.679827683984576 12.187670505863322 17.59085458207459 0 0 0
185 1 9.448402309245852 9.514031937536284 17.591198511213122 0 0 0
348 1 10.771042046398387 10.852695688933784 16.410512581027742 0 0 0
351 1 12.17414911967687 12.318298857344594 17.667786934254323 0 0 0
339 1 14.613469769675397 9.46804760123014 17.428551382664235 0 0 0
476 1 16.176586813943477 10.918310034064357 16.45438584831707 0 0 0
479 1 17.627593150193622 12.202141233113606 17.679674696356972 0 0 0
441 1 20.261224283470725 9.550852887621248 17.79212570516674 0 0 0
95 1 2.685776026114543 13.513640608727115 16.28833929423848 0 0 0
89 1 4.029895670614112 14.893086561108557 17.697115938980424 0 0 0
222 1 8.214460204410205 13.638447494432352 16.463718768041936 0 0 0
217 1 9.766550432605397 14.878757656925094 17.78455684036204 0 0 0
350 1 13.629820399928601 13.711282350137791 16.318335767348056 0 0 0
345 1 15.074686944256726 15.005358036297721 17.558152562607134 0 0 0
478 1 19.034436560779856 13.691465465313872 16.405219010894314 0 0 0
473 1 20.444816240396737 14.757549347980959 17.96697751228488 0 0 0
127 1 1.2726519895586523 17.677003811099134 17.66850761179169 0 0 0
94 1 5.559284209933639 16.287925241437907 16.50653520242306 0 0 0
255 1 7.0355255627417 17.649050787285855 17.654670048098193 0 0 0
380 1 10.86120726440185 16.407895041512052 16.40908464779796 0 0 0
383 1 12.207496724283386 17.98859601165125 17.333758044891 0 0 0
384 1 14.1212837665537 16.897467502603607 18.459446153825148 0 0 0
511 1 16.433200448435144 16.22879043595083 16.03449646873553 0 0 0
477 1 17.775570598747944 17.497630087319482 17.449073660625075 0 0 0
506 1 15.919183408247436 18.466746315059602 18.523809742554928 0 0 0
124 1 21.764138633066473 16.22114687031614 16.416600376828157 -1 0 0
126 1 2.4670162228356385 18.934577559202992 16.190961615541767 0 0 0
121 1 4.0531442671989675 20.12422348297975 17.728337735425608 0 0 0
254 1 8.269327939810324 19.104236843721388 16.386029780919632 0 0 0
249 1 9.520870014352695 20.628618870085106 17.732214206404883 0 0 0
284 1 10.838842126892313 0.07190699011009016 16.31845727193467 0 0 0
382 1 13.708341060791595 19.044742178313218 16.038237437944264 0 0 0