LAMMPS (10 Sep 2025)
OMP_NUM_THREADS environment is not set. Defaulting to 1 thread.
  using 1 OpenMP thread(s) per MPI task
Loaded 1 plugins from C:\Users\lmike\AppData\Local\LAMMPS 64-bit 10Sep2025 with GUI\plugins
# LAMMPS input generated from LammpsInputFile with pymatgen v2025.10.7

# STYLES
units metal
atom_style atomic

# SET UP CALCULATION
read_data starting_config.dat
Reading data file ...
  orthogonal box = (0 0 0) to (21.77481 21.77481 21.77481)
  1 by 1 by 1 MPI processor grid
  reading atoms ...
  513 atoms
  read_data CPU = 0.002 seconds
pair_style sw
pair_coeff * * Si.sw Si
Reading sw potential file Si.sw with DATE: 2007-06-11
velocity all create 1100 4023552

# CALCULATION PARAMETERS
fix f1 all nvt temp 1100.0 1100.0 $(100.0*dt)
fix f1 all nvt temp 1100.0 1100.0 0.10000000000000000555
thermo 100000
thermo_style custom step temp press spcpu cpuremain

# RUN CALC AND WRITE OUTPUTS
dump d1 all custom 100 state_dump id type x y z vx vy vz
run 10000000
Neighbor list info ...
  update: every = 1 steps, delay = 0 steps, check = yes
  max neighbors/atom: 2000, page size: 100000
  master list distance cutoff = 5.77118
  ghost atom cutoff = 5.77118
  binsize = 2.88559, bins = 8 8 8
  1 neighbor lists, perpetual/occasional/extra = 1 0 0
  (1) pair sw, perpetual
      attributes: full, newton on
      pair build: full/bin/atomonly
      stencil: full/bin/3d
      bin: standard
Per MPI rank memory allocation (min/avg/max) = 3.119 | 3.119 | 3.119 Mbytes
   Step          Temp          Press          S/CPU         CPULeft    
         0   1100           8935.7712      0              0            
    100000   1121.7384      7939.9908      878.62379      11267.621    
    200000   1150.7707      8126.3068      881.17004      11137.692    
    300000   1090.6921      6983.3751      818.41432      11300.09     
    400000   1115.3693      5922.2665      820.801        11311.669    
    500000   1153.8852      8100.4368      811.85269      11295.397    
    600000   1050.5613      6471.8696      769.30912      11350.208    
    700000   1145.2645      6268.3354      670.81212      11605.794    
    800000   1098.9124      6647.378       820.5364       11447.398    
    900000   1162.6556      7434.5222      810.24784      11312.765    
   1000000   1090.0659      6694.4371      856.50501      11120.386    
   1100000   1045.195       5844.8306      880.34025      10916.181    
   1200000   1072.4701      5783.7844      860.68349      10746.103    
   1300000   1083.0745      6118.3621      783.25225      10661.184    
   1400000   1136.6688      7130.6594      803.35934      10550.527    
   1500000   1120.254       6483.459       743.06327      10495.266    
   1600000   1091.6689      6934.4412      768.06468      10407.091    
   1700000   1158.3092      7369.5363      772.72489      10310.139    
   1800000   1013.6433      6712.3282      790.60853      10196.245    
   1900000   1092.8441      6342.6216      774.78284      10092.04     
   2000000   1122.9675      7173.1263      805.48965      9965.6667    
   2100000   1114.5002      7037.8326      809.78349      9837.0291    
   2200000   1109.4842      7505.0356      780.20697      9725.4569    
   2300000   1108.1519      7810.6583      785.23636      9609.693     
   2400000   1065.0865      7606.1179      787.9209       9491.5895    
   2500000   1178.7125      7029.419       809.76277      9362.5111    
   2600000   1102.8566      7177.749       790.87196      9242.2577    
   2700000   1085.4374      6937.775       791.60185      9121.2307    
   2800000   1091.8902      7238.602       794.50104      8998.6398    
   2900000   1073.6576      7338.3436      813.68583      8868.5576    
   3000000   1157.1845      7904.5423      796.54194      8745.1263    
   3100000   1090.6047      7897.395       796.09451      8621.7158    
   3200000   1090.0334      5855.6411      792.61355      8499.3399    
   3300000   1093.2969      7288.6582      766.40197      8385.495     
   3400000   1162.71        6134.5704      800.09977      8260.0041    
   3500000   1073.3246      5350.9756      785.21834      8138.9411    
   3600000   1074.6479      7042.8035      780.1332       8019.0044    
   3700000   1052.3496      5629.6379      782.89359      7897.8524    
   3800000   1101.6376      8491.1779      787.84159      7775.0452    
   3900000   1073.8435      5964.4188      805.23532      7647.7383    
   4000000   1095.4802      8022.2024      800.41439      7521.7093    
   4100000   1035.3064      5310.2037      795.75111      7396.7873    
   4200000   1075.26        6528.8445      789.6659       7273.1671    
   4300000   1168.9167      6343.5208      782.12715      7151.0246    
   4400000   1127.7488      6352.0595      784.10945      7028.2111    
   4500000   1069.9595      7429.7271      821.10927      6898.1639    
   4600000   1121.0342      7548.8795      790.71825      6773.9708    
   4700000   1123.901       6295.8749      784.55864      6650.8006    
   4800000   997.09071      5910.4525      794.63796      6525.7002    
   4900000   1088.3835      6207.5107      765.9056       6405.4831    
   5000000   1071.0371      5851.5469      792.99174      6280.3924    
   5100000   1081.7957      6926.985       810.1216       6152.7       
   5200000   1161.7924      7363.368       768.99539      6031.265     
   5300000   1057.7659      5897.3587      757.38787      5911.2726    
   5400000   1199.2104      7754.3659      787.43395      5786.5427    
   5500000   1105.3872      5573.6754      786.01858      5661.9175    
   5600000   1107.0563      7421.266       789.58212      5536.7484    
   5700000   1147.4944      8226.869       802.47898      5409.9918    
   5800000   1106.4575      6100.0492      774.05126      5286.6232    
   5900000   1044.6677      7036.5969      817.49403      5158.2864    
   6000000   1029.8788      6759.7192      795.13394      5032.4433    
   6100000   1149.6311      6555.8867      794.31731      4906.6854    
   6200000   1100.3811      6191.0661      809.14168      4779.5094    
   6300000   1038.8684      7394.674       777.05548      4655.4445    
   6400000   1133.4506      6581.0646      793.93727      4529.6958    
   6500000   1137.1344      7708.0623      800.48088      4403.3863    
   6600000   1140.2545      7729.7836      780.33321      4278.7804    
   6700000   991.61011      6754.3806      806.62478      4152.0113    
   6800000   1074.1815      6778.8033      802.26588      4025.6415    
   6900000   1115.3509      6816.1284      802.42711      3899.3103    
   7000000   1116.7199      7248.5098      816.35081      3772.117     
   7100000   1124.8734      7225.2616      794.83292      3646.4106    
   7200000   1136.6373      6260.8854      788.30801      3521.1061    
   7300000   1102.4925      6102.511       785.7131       3395.9142    
   7400000   1096.1251      8083.2896      794.8816       3270.1503    
   7500000   1034.1465      6284.5881      797.47959      3144.2486    
   7600000   1106.596       7391.2661      795.77358      3018.4452    
   7700000   1156.9322      7543.2814      794.07956      2892.7254    
   7800000   1016.2025      5572.7223      799.026        2766.7804    
   7900000   1130.197       7783.3537      791.13865      2641.187     
   8000000   1106.4266      7206.7297      798.26547      2515.2914    
   8100000   1087.5896      5698.1422      819.84028      2388.6379    
   8200000   1105.2676      6140.4207      818.5969       2262.1392    
   8300000   1082.1225      6309.9004      836.84563      2135.1995    
   8400000   1098.3832      6403.8584      783.74402      2009.979     
   8500000   1019.2511      6968.8175      815.76909      1883.8189    
   8600000   1123.432       6837.485       833.58025      1757.3155    
   8700000   1106.3949      8495.2572      802.90263      1631.6474    
   8800000   1057.6322      6658.555       818.45413      1505.682     
   8900000   1086.8011      7476.5924      823.51851      1379.7087    
   9000000   1086.243       6528.2696      833.4548       1253.6756    
   9100000   1116.9973      7099.5246      820.98802      1127.9557    
   9200000   1064.3604      7061.2889      832.02592      1002.1803    
   9300000   1131.7635      6734.8984      832.04441      876.5249     
   9400000   1143.9226      7424.3228      779.42843      751.50374    
   9500000   1050.5984      6524.8379      859.53088      625.78427    
   9600000   1094.1568      6524.7192      870.93219      500.19669    
   9700000   1100.1515      7814.7095      859.58882      374.878      
   9800000   1163.9849      7459.347       898.93691      249.63873    
   9900000   1021.1895      7310.3259      894.11371      124.68829    
  10000000   1091.1097      6891.2885      905.80817      0            
Loop time of 12454.5 on 1 procs for 10000000 steps with 513 atoms

Performance: 69.372 ns/day, 0.346 hours/ns, 802.920 timesteps/s, 411.898 katom-step/s
99.3% CPU use with 1 MPI tasks x 1 OpenMP threads

MPI task timing breakdown:
Section |  min time  |  avg time  |  max time  |%varavg| %total
---------------------------------------------------------------
Pair    | 12242      | 12242      | 12242      |   0.0 | 98.29
Neigh   | 4.732      | 4.732      | 4.732      |   0.0 |  0.04
Comm    | 30.785     | 30.785     | 30.785     |   0.0 |  0.25
Output  | 118.72     | 118.72     | 118.72     |   0.0 |  0.95
Modify  | 47.222     | 47.222     | 47.222     |   0.0 |  0.38
Other   |            | 11.43      |            |       |  0.09

Nlocal:            513 ave         513 max         513 min
Histogram: 1 0 0 0 0 0 0 0 0 0
Nghost:           1450 ave        1450 max        1450 min
Histogram: 1 0 0 0 0 0 0 0 0 0
Neighs:              0 ave           0 max           0 min
Histogram: 1 0 0 0 0 0 0 0 0 0
FullNghs:        18372 ave       18372 max       18372 min
Histogram: 1 0 0 0 0 0 0 0 0 0

Total # of neighbors = 18372
Ave neighs/atom = 35.812865
Neighbor list builds = 7698
Dangerous builds = 0
write_data FINAL_STRUCTURE
System init for write_data ...
Total wall time: 3:27:34
