LAMMPS (10 Sep 2025)
OMP_NUM_THREADS environment is not set. Defaulting to 1 thread.
  using 1 OpenMP thread(s) per MPI task
Loaded 1 plugins from C:\Users\lmike\AppData\Local\LAMMPS 64-bit 10Sep2025 with GUI\plugins
# LAMMPS input generated from LammpsInputFile with pymatgen v2025.10.7

# STYLES
units metal
atom_style atomic

# SET UP CALCULATION
read_data starting_config.dat
Reading data file ...
  orthogonal box = (0 0 0) to (21.790885 21.790885 21.790885)
  1 by 1 by 1 MPI processor grid
  reading atoms ...
  513 atoms
  read_data CPU = 0.002 seconds
pair_style sw
pair_coeff * * Si.sw Si
Reading sw potential file Si.sw with DATE: 2007-06-11
velocity all create 1100 2403912

# CALCULATION PARAMETERS
fix f1 all nvt temp 1100.0 1100.0 $(100.0*dt)
fix f1 all nvt temp 1100.0 1100.0 0.10000000000000000555
thermo 100000
thermo_style custom step temp press spcpu cpuremain

# RUN CALC AND WRITE OUTPUTS
dump d1 all custom 100 state_dump id type x y z vx vy vz
run 10000000
Neighbor list info ...
  update: every = 1 steps, delay = 0 steps, check = yes
  max neighbors/atom: 2000, page size: 100000
  master list distance cutoff = 5.77118
  ghost atom cutoff = 5.77118
  binsize = 2.88559, bins = 8 8 8
  1 neighbor lists, perpetual/occasional/extra = 1 0 0
  (1) pair sw, perpetual
      attributes: full, newton on
      pair build: full/bin/atomonly
      stencil: full/bin/3d
      bin: standard
Per MPI rank memory allocation (min/avg/max) = 3.119 | 3.119 | 3.119 Mbytes
   Step          Temp          Press          S/CPU         CPULeft    
         0   1100           6666.5385      0              0            
    100000   1044.2761      5536.0791      661.59097      14963.929    
    200000   1059.2276      3236.3609      538.69959      16502.368    
    300000   1146.4875      4810.46        699.16978      15513.85     
    400000   1118.9023      5608.543       605.93763      15476.239    
    500000   1077.6293      4280.4061      435.55489      16614.274    
    600000   1145.8957      4868.8761      533.00355      16638.806    
    700000   1111.9142      3236.0834      534.37463      16596.33     
    800000   1060.8209      4778.7729      545.71623      16472.963    
    900000   1135.7789      5508.5067      549.0381       16325.079    
   1000000   1086.9505      5289.5879      539.99643      16197.792    
   1100000   1167.7658      4603.6079      544.79779      16046.773    
   1200000   1152.2769      4717.9775      530.89177      15925.59     
   1300000   1111.4255      5546.4297      551.31495      15747.374    
   1400000   1096.5846      4907.0624      551.42337      15568.486    
   1500000   1171.6079      5114.9626      537.64344      15415.609    
   1600000   1080.0546      4731.1457      540.5236       15253.389    
   1700000   1090.3399      4645.0353      541.95185      15086.107    
   1800000   1083.8096      4504.5759      537.75183      14923.476    
   1900000   1149.2401      5359.5152      544.24092      14748.937    
   2000000   1131.865       4802.644       541.59244      14577.071    
   2100000   1147.1612      4792.6935      533.90491      14413.991    
   2200000   1158.3579      5466.9605      550.70437      14228.451    
   2300000   1123.0817      5719.2057      530.26324      14066.689    
   2400000   1098.7214      5432.3095      534.7222       13897.712    
   2500000   1058.8869      3829.7108      520.01427      13743.161    
   2600000   1088.5552      4227.1812      540.85078      13564.62     
   2700000   1105.4448      4979.297       542.40073      13384.18     
   2800000   1080.511       3993.8902      539.1978       13206.276    
   2900000   1086.268       5844.7576      523.92607      13041.085    
   3000000   1113.0872      4749.4223      551.30481      12852.066    
   3100000   1074.012       4347.5781      548.02103      12665.958    
   3200000   1136.4257      4232.976       538.07777      12487.243    
   3300000   1089.0465      4282.9235      523.28257      12318.764    
   3400000   1088.0122      4568.1301      537.90716      12138.869    
   3500000   1093.3592      4997.6352      540.4182       11957.026    
   3600000   1088.2136      3962.1974      520.46325      11787.618    
   3700000   1107.8428      5044.5398      529.4016       11611.458    
   3800000   1131.2698      4663.8632      525.57591      11436.871    
   3900000   1143.3541      4357.5725      530.98737      11258.447    
   4000000   1166.2588      5716.722       532.36193      11078.799    
   4100000   1053.8811      4930.4523      529.97709      10899.967    
   4200000   1031.2684      4976.4109      525.07817      10723.097    
   4300000   1119.8814      4502.709       517.66139      10549.212    
   4400000   1150.2191      5652.9909      524.99002      10371.018    
   4500000   1096.1644      4663.1889      534.75281      10188.028    
   4600000   1072.3166      3318.484       539.75686      10002.829    
   4700000   1057.5044      3593.8833      534.76609      9819.5759    
   4800000   1167.0932      5100.6662      516.44609      9643.3533    
   4900000   1135.0026      5621.6376      529.93764      9461.2893    
   5000000   1065.2152      4701.8554      529.5318       9279.1044    
   5100000   1069.639       5221.2547      528.98689      9096.8452    
   5200000   1113.0425      6350.708       532.59285      8913.1437    
   5300000   993.92078      3923.7462      540.11454      8726.9703    
   5400000   1152.6359      5722.2946      541.08426      8540.5522    
   5500000   1131.1184      5226.8833      524.40282      8359.0026    
   5600000   1084.9047      4521.0536      515.01908      8179.8564    
   5700000   1082.4421      4419.9639      530.43516      7995.926     
   5800000   1088.3667      4834.8549      545.43416      7808.0831    
   5900000   1095.9944      4606.0283      530.59939      7623.9549    
   6000000   1118.2352      4167.3955      519.65335      7442.3287    
   6100000   1125.6668      5306.7259      536.28138      7256.5333    
   6200000   1064.701       4411.3065      528.44307      7072.4114    
   6300000   1143.2176      4748.092       532.3282       6887.316     
   6400000   1089.0549      5247.1422      527.67216      6703.0668    
   6500000   1218.4315      5814.6747      531.13203      6517.9909    
   6600000   1025.0994      3997.6401      534.44566      6332.2167    
   6700000   1128.0205      4950.4764      512.13752      6150.4169    
   6800000   1084.4733      4834.2635      533.33334      5964.5694    
   6900000   1113.3849      5770.7257      532.79783      5778.7587    
   7000000   1094.8311      3839.7374      522.74583      5594.4412    
   7100000   1147.7504      4170.8533      545.72601      5406.6367    
   7200000   1088.605       4471.6772      521.88104      5222.215     
   7300000   1140.4899      4955.9052      522.12484      5037.563     
   7400000   1066.151       6177.4004      531.63447      4851.5216    
   7500000   1089.618       5883.0522      536.73226      4664.8299    
   7600000   1101.1839      4333.3211      538.59107      4477.945     
   7700000   1105.1555      4665.3749      540.10687      4290.9361    
   7800000   1176.8362      5426.3892      532.14811      4104.7559    
   7900000   1136.7374      4776.8347      542.20121      3917.6055    
   8000000   1160.6703      5057.0905      520.54321      3732.4414    
   8100000   1109.5002      4285.8665      542.9593       3545.2456    
   8200000   1159.7809      5461.3804      536.45215      3358.6138    
   8300000   1057.7665      3822.0185      537.24304      3171.9311    
   8400000   1141.2402      5028.0137      523.60514      2986.1849    
   8500000   1117.2298      5559.7695      539.6605       2799.3128    
   8600000   1100.1212      3336.2083      532.10246      2612.9056    
   8700000   1095.7993      3860.4086      533.40029      2426.3951    
   8800000   1094.7184      4112.7569      539.23738      2239.5859    
   8900000   1051.5877      3183.4971      537.94857      2052.8621    
   9000000   1073.248       4725.8267      512.24392      1867.1934    
   9100000   1146.9207      5473.0002      538.65267      1680.3681    
   9200000   1070.0411      3323.4827      542.66532      1493.4491    
   9300000   1048.3782      3374.1884      537.21871      1306.7275    
   9400000   1065.6638      4586.3452      554.12383      1119.6558    
   9500000   1026.0354      3618.1609      543.1127       932.91565    
   9600000   1124.3831      5762.6275      537.9765       746.3033     
   9700000   1075.5179      3536.3014      554.50128      559.53468    
   9800000   1060.6741      3741.1482      553.9388       372.90095    
   9900000   1071.0911      3535.7403      561.71149      186.36539    
  10000000   1177.1859      4905.161       550.34992      0            
Loop time of 18631.9 on 1 procs for 10000000 steps with 513 atoms

Performance: 46.372 ns/day, 0.518 hours/ns, 536.715 timesteps/s, 275.335 katom-step/s
99.5% CPU use with 1 MPI tasks x 1 OpenMP threads

MPI task timing breakdown:
Section |  min time  |  avg time  |  max time  |%varavg| %total
---------------------------------------------------------------
Pair    | 18340      | 18340      | 18340      |   0.0 | 98.43
Neigh   | 5.9074     | 5.9074     | 5.9074     |   0.0 |  0.03
Comm    | 43.958     | 43.958     | 43.958     |   0.0 |  0.24
Output  | 159.64     | 159.64     | 159.64     |   0.0 |  0.86
Modify  | 65.457     | 65.457     | 65.457     |   0.0 |  0.35
Other   |            | 16.67      |            |       |  0.09

Nlocal:            513 ave         513 max         513 min
Histogram: 1 0 0 0 0 0 0 0 0 0
Nghost:           1451 ave        1451 max        1451 min
Histogram: 1 0 0 0 0 0 0 0 0 0
Neighs:              0 ave           0 max           0 min
Histogram: 1 0 0 0 0 0 0 0 0 0
FullNghs:        18298 ave       18298 max       18298 min
Histogram: 1 0 0 0 0 0 0 0 0 0

Total # of neighbors = 18298
Ave neighs/atom = 35.668616
Neighbor list builds = 7713
Dangerous builds = 0
write_data FINAL_STRUCTURE
System init for write_data ...
Total wall time: 5:10:31
