LAMMPS data file via write_data, version 10 Sep 2025, timestep = 10000000, units = metal

513 atoms
1 atom types

0 21.77481 xlo xhi
0 21.77481 ylo yhi
0 21.77481 zlo zhi

Masses

1 28.085

Atoms # atomic

7 1 1.2178939503246278 1.3764501409386556 1.4877462455376884 0 0 0
8 1 2.5063135333908844 21.66974986389686 2.751399211754778 0 -1 0
2 1 21.723589762032567 2.755203556965798 2.7891263403320883 -1 0 0
513 1 5.358162090744609 2.740218464519301 2.8270314878022207 0 0 0
135 1 6.746433695803409 1.2460882064954166 1.622036446713814 0 0 0
134 1 8.28746246480692 2.4122581205155043 0.21796843389215037 0 0 0
258 1 10.743855880742691 2.7685386037290396 2.637442391852373 0 0 0
263 1 12.009577087835329 1.2508560049393833 1.3050469196627654 0 0 0
391 1 17.785136908128656 1.4080590476291464 1.2707378331247268 0 0 0
386 1 16.25357829241898 2.6649437504753535 2.6861053263919654 0 0 0
392 1 19.01892476470997 21.679938604976545 2.7374517513665295 0 -1 0
40 1 2.6876827757957162 5.611740168186149 2.7674639133134087 0 0 0
1 1 3.9300665629166045 4.127562064761325 1.3533396386567342 0 0 0
168 1 8.160431656069289 5.642755881606911 2.759635305347198 0 0 0
129 1 9.612609529993948 4.087523618969181 1.2699347952735272 0 0 0
292 1 10.946996946767031 5.669111996058295 0.058732362391327106 0 0 0
257 1 14.734167312837823 4.089803149385038 1.2821873763341283 0 0 0
296 1 13.490642063781584 5.576884895016775 3.00952614682531 0 0 0
420 1 16.190226233779477 5.3621211157154995 21.766205605058154 0 0 -1
385 1 20.19306327242123 3.825737590413295 1.3957343816432923 0 0 0
424 1 18.80023812097264 5.34402085060948 2.8072073231760886 0 0 0
36 1 21.598851247208636 5.16883836407995 0.20681736462224432 -1 0 0
39 1 1.1095201521410443 6.71448461753885 1.3789787120887562 0 0 0
34 1 21.68055549786164 8.356782403858595 2.583598975367642 -1 0 0
162 1 5.56849350350804 8.039695842787458 2.6824934985861044 0 0 0
167 1 6.9172350162462735 6.88326279360671 1.3178671417929673 0 0 0
290 1 10.759530615461436 8.157862993994591 3.0064682265844724 0 0 0
295 1 12.313926777769348 7.048548677052597 1.6548378713133698 0 0 0
294 1 13.580213708960414 8.273983118328898 0.13898039261949394 0 0 0
423 1 17.54592951259403 6.638683334519981 1.3425155501706307 0 0 0
418 1 16.24668017905546 7.999386160337971 2.715201911829885 0 0 0
72 1 2.6138122632827296 10.82438274594394 2.7595242843724073 0 0 0
71 1 1.2309324709509708 12.298174606133793 1.4271099821746158 0 0 0
33 1 3.9039348504951605 9.409669728499848 1.4362976337406765 0 0 0
200 1 8.272484818496471 10.958265788249124 2.6828323016538222 0 0 0
199 1 6.910670749632454 12.336876245794794 1.376166027688775 0 0 0
161 1 9.602757791029195 9.529985279571763 1.4747660408981182 0 0 0
327 1 12.35249374418143 12.256254545009376 1.6820608838102762 0 0 0
380 1 10.81670441218213 11.03007301279379 0.33426814862241544 0 0 1
289 1 14.999860760148973 9.552826493754404 1.5658956904508008 0 0 0
328 1 13.705356043687662 10.730570795960743 3.042069129347912 0 0 0
455 1 17.54973105238175 12.228787017352225 1.1799251096667838 0 0 0
452 1 16.172340486746332 10.894726798276377 0.001261323068934218 0 0 0
417 1 20.337834888651134 9.625924977429026 1.2189263584140624 0 0 0
456 1 18.761504527029174 10.907143933752181 2.483810145266085 0 0 0
228 1 4.1299377651383296 15.014750064136717 1.4937448289202178 0 0 0
194 1 5.690732782407391 13.857577146075602 2.6820924551237044 0 0 0
219 1 8.166437596758945 13.576239521742274 21.700530327365357 0 0 0
193 1 9.49028890902127 14.88279763282582 1.33338333991403 0 0 0
322 1 11.0142499312615 13.707896495578092 2.8764880742923498 0 0 0
321 1 14.82292281300865 14.919496959701235 1.042628870358382 0 0 0
450 1 15.939730013420599 13.470501942348669 2.843988296749749 0 0 0
66 1 21.372059691544305 13.667560042848875 2.945453277981129 -1 0 0
449 1 20.2083473121021 14.88132322311102 1.470813034358163 0 0 0
454 1 18.87016624756109 13.692630302826082 0.09976009669943267 0 0 0
103 1 1.178374082494265 17.73114225802525 1.45585875607806 0 0 0
65 1 2.710779872224795 16.417711322818555 2.846274878381917 0 0 0
100 1 0.04069600007822131 16.266713541873266 0.08773512353451733 0 0 0
231 1 6.687127194775019 17.593704834319873 1.3234143227292434 0 0 0
227 1 8.11515667443179 16.411408857729043 2.632738659954608 0 0 0
359 1 12.101849909364212 17.685577566674652 1.0530081341240227 0 0 0
360 1 13.77265307330044 16.456337864555294 2.3856890915380147 0 0 0
487 1 17.443980535587777 17.439481363848643 1.2222690460081902 0 0 0
484 1 16.165250151319917 16.318974106784648 21.54302127125483 0 0 -1
488 1 18.898731483260963 16.491077046278036 2.6754489712399487 0 0 0
98 1 21.71667826410938 19.123616956558095 2.7790245152321216 -1 0 0
97 1 3.9715534025200836 20.53432022268368 1.4079620464946045 0 0 0
226 1 5.486355438266352 19.0757353143125 2.7739007884537283 0 0 0
130 1 8.062840212525531 21.70639928993418 3.038091233141743 0 -1 0
225 1 9.356141362351813 20.46937156163534 1.5022186376161415 0 0 0
354 1 10.84391763733079 18.994021268755088 2.571283748991732 0 0 0
260 1 10.531525410694663 0.11773934463889546 21.674666887025726 0 0 -1
264 1 13.43233445230106 21.700470462019307 2.5651991326422623 0 -1 0
353 1 14.926676096789777 20.476790418080228 1.182902198606141 0 0 0
358 1 13.40472874954646 19.31047593429957 21.59024723152722 0 0 -1
388 1 16.422398550090684 0.07847745744946621 0.01112171129447158 0 0 0
482 1 16.020584445093824 19.023873457237467 2.552428918572381 0 0 0
481 1 20.262109353157236 20.162175168650617 1.4785352939774483 0 0 0
509 1 18.844927385281867 18.796403616937535 0.09153102168945484 0 0 1
14 1 2.6969437878308584 2.6377368371102463 5.318858480911176 0 0 0
3 1 4.0021283592018575 1.0956586146787035 4.059038400091442 0 0 0
142 1 8.040750968151665 2.9963300511011974 5.579299697716994 0 0 0
131 1 9.355375007673793 1.5018297425040896 4.2322558174893485 0 0 0
259 1 14.945365104175192 1.2581503783566135 4.0303797469757905 0 0 0
270 1 13.610694431561765 2.4842499082286413 5.463791569388162 0 0 0
396 1 16.385337064887228 21.610519625086106 5.201986995199205 0 -1 0
398 1 18.722310489310292 2.781238662925378 5.712567717604173 0 0 0
387 1 20.05040719352143 1.4999815307986084 4.122092687274225 0 0 0
12 1 21.696878690944043 0.2421456140869415 5.539542421204857 -1 0 0
5 1 1.2693445699059347 4.162314031664501 4.112600850282703 0 0 0
172 1 5.384777974876528 5.4066579609497385 5.713540376986367 0 0 0
133 1 6.847384281551046 4.122632718675418 4.192550834720947 0 0 0
300 1 10.770920758826732 5.40669810532384 5.514385702913164 0 0 0
261 1 12.044522408085996 4.070940506029916 4.1840890393173495 0 0 0
389 1 17.348670053426016 4.0951025013077125 4.075038137465321 0 0 0
428 1 16.25440516577941 5.667084747696003 5.463880941685882 0 0 0
44 1 21.453844121555644 5.596378649074809 5.553498255201891 -1 0 0
47 1 2.726550511880682 8.083518858196134 5.28632617881275 0 0 0
35 1 4.228045589940954 6.771430192666148 4.119325240257273 0 0 0
174 1 7.904911072882149 8.337477601629148 5.633774862289382 0 0 0
163 1 9.439103668615495 6.9182512965098475 4.235604923587911 0 0 0
291 1 14.70094968914921 6.902796347842577 4.194194931097316 0 0 0
302 1 13.395113304365086 8.112114342137811 5.628755489486557 0 0 0
425 1 18.969145914212735 8.216211845258101 5.291870532301171 0 0 0
419 1 20.23021656806038 6.828823884623857 3.9115639924585945 0 0 0
37 1 1.25268672238534 9.59122497946257 3.996394425414316 0 0 0
79 1 21.711363202082744 10.849135262694029 5.427998945801638 -1 0 0
204 1 5.418316989500912 10.976087878051052 5.576026062701885 0 0 0
67 1 4.2500906286881275 12.253014773924436 4.162123152889018 0 0 0
165 1 6.657797203285738 9.753955735390207 4.077095470301155 0 0 0
195 1 9.513593438788968 12.253110209761116 4.2675475300670005 0 0 0
293 1 12.049849315651375 9.610435469037132 4.3424090934257915 0 0 0
332 1 10.863565222110141 11.069708391922093 5.733367969710801 0 0 0
323 1 14.847851941292967 12.197704353469767 4.4184514868729465 0 0 0
421 1 17.644189579400514 9.45424972773484 3.9105689606695457 0 0 0
460 1 16.285206936865002 10.952679327025029 5.514542535835458 0 0 0
69 1 1.1754095210205107 14.987113154024023 4.129639623475926 0 0 0
78 1 2.729354433013703 13.512093633030807 5.400505622461552 0 0 0
197 1 6.847928398644542 15.132246315062613 4.088140323180276 0 0 0
206 1 8.032600236772787 13.735882465531192 5.513701602080767 0 0 0
325 1 12.526463912816453 15.062256967892056 4.110166499254547 0 0 0
334 1 13.914820360953154 14.119854860346859 5.684875265276696 0 0 0
453 1 17.552915982531378 15.02946149437272 3.8595957748701233 0 0 0
451 1 20.02193120491328 12.073055739689229 4.009850610746646 0 0 0
462 1 18.74865309479842 13.576892338330476 5.338084410077349 0 0 0
99 1 3.9036992753682633 17.93387024228564 4.163687449309845 0 0 0
236 1 5.552940522736443 16.559267658934832 5.266471614005017 0 0 0
238 1 9.464192741685533 17.718132096588864 4.028751931822111 0 0 0
364 1 11.009672470693268 16.356736391254238 5.405276303419042 0 0 0
355 1 14.727794128171869 17.76772369734215 3.9833057143515007 0 0 0
492 1 16.308861251715886 16.46784948768211 5.477748712403221 0 0 0
108 1 21.676707577247694 16.48115678374051 5.437294223216993 -1 0 0
483 1 20.27865961811779 17.868922742150023 4.0675626074270825 0 0 0
110 1 2.493082942450541 19.08979497475098 5.604008058491311 0 0 0
101 1 1.187458890106422 20.44016950444894 4.095594834257883 0 0 0
140 1 5.34924207091654 21.68013367019383 5.547161659160058 0 -1 0
229 1 8.147969097895867 19.004581637703463 5.540912971832311 0 0 0
136 1 6.765185608789324 20.363414559364344 4.296642341996647 0 -1 0
268 1 10.91717296024624 21.57786348626835 5.272216001486604 0 -1 0
357 1 12.273334836756185 20.38552848233203 3.8644307980661807 0 0 0
366 1 13.319415167148675 19.112769829266316 5.640025148090697 0 0 0
485 1 17.500932506605984 20.299357797638876 3.850604266243232 0 0 0
494 1 18.876286322813076 19.136525717217836 5.412043491546252 0 0 0
15 1 1.1345524600778807 1.5862543366672814 6.798596151471667 0 0 0
10 1 21.713737980580778 2.9249502421865685 8.310556132781638 -1 0 0
16 1 2.6333462981454328 0.18678148393237765 8.177396820685036 0 0 0
138 1 5.261978064643777 2.8644408290427408 8.236553306181149 0 0 0
143 1 6.7097772502719675 1.4550965381690804 6.932872432210739 0 0 0
144 1 8.083225306674498 0.1218340603594163 8.062693121517961 0 0 0
271 1 11.819493267796643 1.4717256149368008 6.7682176123000675 0 0 0
266 1 10.688388349610076 2.837497055867873 8.353358234275182 0 0 0
394 1 15.145829279104357 2.4326506834334274 7.243719881016458 0 0 0
267 1 14.479333953382465 1.2544443908532081 9.607136846715688 0 0 0
399 1 17.841555621101527 1.0787576390018838 6.878440035020632 0 0 0
48 1 2.5753805929181413 5.486004144625986 8.165841885715551 0 0 0
9 1 3.8945456384418917 4.10819847074543 6.772136950726714 0 0 0
43 1 8.019130184382622 5.504987650603767 8.455562794161526 0 0 0
137 1 9.51952334877464 4.4687506522548235 7.052634987983641 0 0 0
304 1 13.30714850657849 5.708469501336264 8.369532761978087 0 0 0
265 1 15.237047310502195 4.646322591376027 7.492733163203637 0 0 0
436 1 17.076548735830844 4.493573306911279 9.276000293800443 0 0 0
432 1 18.965762405553427 5.689938137886713 8.356504224619968 0 0 0
393 1 20.18371835018599 4.0696908443691555 6.874190719536993 0 0 0
45 1 1.2273346775721952 6.75070247708704 6.7446347775045865 0 0 0
170 1 5.0979694446554635 8.367274264516036 8.337670875505484 0 0 0
175 1 6.6601549471507795 6.9174946778639885 7.267289439305196 0 0 0
298 1 10.658828199619217 8.33807768170077 8.182938122571457 0 0 0
303 1 11.875305492035553 6.699401682347035 6.793016950712485 0 0 0
176 1 9.448948546369214 7.007186819119533 9.568243635112074 0 0 0
426 1 16.11068240925597 8.234970493423207 8.129765647091709 0 0 0
431 1 17.65116038382715 6.90887643168357 6.779184676027835 0 0 0
76 1 0.05768201271019535 8.113779841318554 7.992904647620716 0 0 0
54 1 2.7751531599216652 10.851065059723222 8.24511180445319 0 0 0
46 1 3.894856359341346 9.582750846261323 6.852482552701253 0 0 0
208 1 8.048873934104666 11.252875469433475 8.12200412522556 0 0 0
207 1 6.628454766387841 12.394430418607104 6.870491798403629 0 0 0
169 1 9.248075682247327 9.718276971379346 6.884056185490961 0 0 0
301 1 11.831127661029333 9.861374197353152 9.398133532885442 0 0 0
297 1 14.781314115632819 9.669303061835146 6.7815849437197215 0 0 0
336 1 13.447825778054598 11.105181824560852 8.122001924693318 0 0 0
463 1 17.610390456260212 12.234884184445527 6.871803289009775 0 0 0
430 1 20.31880759178563 9.56464734710078 6.713882744688618 0 0 0
464 1 19.075584685447193 10.79256904231805 8.389762120607433 0 0 0
41 1 1.2895984738113706 12.098148120623971 6.933095735936479 0 0 0
74 1 0.028434395213972626 13.570018343888112 7.986218772785891 0 0 0
73 1 3.9442543241583605 14.881714017928525 6.693109046788515 0 0 0
202 1 5.184119136358653 13.64115415740423 8.19993001934201 0 0 0
201 1 9.56201638519799 14.955561678846546 6.752409821863684 0 0 0
335 1 12.249264766965338 12.613481899262135 6.855632543623033 0 0 0
330 1 10.810284894399462 13.658200156597426 8.252649630877517 0 0 0
329 1 15.355135918677231 15.254951121040733 6.9995694161272315 0 0 0
458 1 16.36302622119968 13.658961972864523 8.296244036934 0 0 0
457 1 20.460391815572553 14.785001915895435 6.547704266075213 0 0 0
111 1 1.1343551457824617 17.754909397311895 6.834923258907034 0 0 0
112 1 2.6261619791076645 16.32881673642388 8.0165944491679 0 0 0
239 1 6.9053587737824795 17.51650299589799 6.8290979402028515 0 0 0
240 1 8.254009925099126 16.25546441622064 8.129944496345347 0 0 0
367 1 12.257190329396018 17.699334788390836 6.840668207607901 0 0 0
368 1 13.586499487742392 16.345887080327397 8.23137784889927 0 0 0
495 1 17.7753406911382 17.57745169196507 6.955995909986692 0 0 0
496 1 19.071326842869627 16.065658155534983 8.154809041309651 0 0 0
106 1 21.415549034787045 19.082958019661383 8.189320805592283 -1 0 0
234 1 5.3237116684458226 19.004494553220056 8.141850091980249 0 0 0
105 1 3.742642304969277 20.46639655655768 7.069958737647921 0 0 0
233 1 9.564622586802685 20.32239664233894 6.780123501316528 0 0 0
362 1 10.840476176566664 19.157596237414566 8.155673104369194 0 0 0
272 1 13.19160270257026 21.68817544894787 8.18779650789561 0 -1 0
361 1 14.918783518993914 20.443199881714545 6.969082180649527 0 0 0
490 1 16.31681293943245 19.052616653880428 8.233069373354837 0 0 0
493 1 17.628642508677373 20.294135387811746 9.69369104008998 0 0 0
400 1 19.133169248098312 21.595883672105565 8.370247824666917 0 -1 0
489 1 20.38790824826431 20.491915757659594 6.719861001322775 0 0 0
22 1 2.628187279731745 2.875168667762525 10.931888395921197 0 0 0
23 1 1.2207617357067613 1.499673927934168 12.332725845975354 0 0 0
11 1 4.069962631581705 1.365115183254426 9.536559203634383 0 0 0
150 1 8.197373721316717 2.6144861955260192 11.006762550905487 0 0 0
139 1 9.343704824787606 1.2486304997804987 9.51550310353853 0 0 0
279 1 12.346737952917668 1.2786815067644306 12.434802078009028 0 0 0
276 1 10.961747002484412 0.05843349868938877 10.76814553255068 0 0 0
278 1 13.404704437641264 2.866178048101878 11.013727493268961 0 0 0
397 1 16.879741102741978 1.7734668534511278 9.078654262117654 0 0 0
404 1 16.20804593304907 21.599644525403274 10.989823441119555 0 -1 0
407 1 17.49303274128908 0.9987431362049715 12.401463929659238 0 0 0
395 1 20.351012168927213 1.4145747633446624 9.705461814198106 0 0 0
406 1 18.52036383325706 2.6759214814218777 10.778067979798694 0 0 0
20 1 21.644847312452736 0.14572641877906592 10.995685739790227 -1 0 0
13 1 1.3096804744643118 4.240966220726363 9.62969033416173 0 0 0
52 1 21.637723079851455 5.4609882517324575 10.920268471139874 -1 0 0
180 1 5.494159813074522 5.645074459075939 10.798487404609478 0 0 0
141 1 6.685066376987239 3.9769080311571465 9.683689385566847 0 0 0
145 1 9.461729309837805 3.99879499820413 12.376311486281566 0 0 0
269 1 11.995842551391776 4.318851831697787 9.647093570039562 0 0 0
308 1 10.586030066581834 5.482702008921046 11.053165902996774 0 0 0
402 1 14.845890797280159 4.101644114145345 12.601391320959351 0 0 0
273 1 16.033050292499485 5.5455162524352115 11.270338317705104 0 0 0
49 1 2.7329692292654637 8.231911145039316 10.83546028834483 0 0 0
55 1 1.237238117102117 6.952955155049226 12.153989767319342 0 0 0
178 1 3.8580991591879252 6.781323352532803 9.503455672463378 0 0 0
212 1 8.268282217576367 8.530906729399906 10.80537325076279 0 0 0
183 1 6.951252015208062 6.852978579857317 12.072241764669878 0 0 0
177 1 11.88758192587779 6.99617236100685 12.215845772747954 0 0 0
299 1 14.681316238873162 7.017764546549369 9.705761957017641 0 0 0
310 1 13.189254864723457 8.575776865533859 11.010901103483256 0 0 0
439 1 17.78139718305463 6.939147569293092 12.300840744668978 0 0 0
42 1 20.54076925979056 6.89786327127617 9.472186010938474 -1 0 0
433 1 19.100736646750555 8.277224102493172 10.920106306721937 0 0 0
75 1 1.3032012118464713 9.495037964498465 9.488920732513163 0 0 0
438 1 21.68042094893866 10.923686066556588 10.972291953191114 0 0 0
80 1 5.296765426158641 11.027351924434413 10.985390129492986 0 0 0
171 1 6.610403894385245 9.741728871435658 9.491827087125806 0 0 0
203 1 9.332291779850094 12.512751816136442 9.520910064713778 0 0 0
215 1 6.692240934545083 12.264562637161692 12.523383199883048 0 0 0
340 1 10.645165843685186 11.2794396947033 11.133144850233395 0 0 0
191 1 9.35447510076904 9.86810595713274 12.328549152025287 0 0 0
331 1 14.81415001506251 12.420472602491559 9.475181041644845 0 0 0
305 1 14.73899084457731 9.835861013914078 12.213512567622411 0 0 0
429 1 17.58299899697907 9.400325978114894 9.707898435662306 0 0 0
468 1 16.26253762604381 11.050257751157252 10.846443264584375 0 0 0
472 1 17.769892209585574 12.456625761599826 12.216550839503602 0 0 0
50 1 20.35203873558728 9.635753739818522 12.338288641357668 -1 0 0
77 1 1.3358612957870564 15.060092099544379 9.50759379825485 0 0 0
86 1 2.5884808407897366 13.49249104061194 10.937403678265149 0 0 0
173 1 3.9629092906324 12.317777935166749 9.686494480562867 0 0 0
205 1 6.6468099710074 15.069122627929618 9.413995752580385 0 0 0
214 1 7.876111121771652 13.691358802738373 11.129753937415288 0 0 0
209 1 9.464315634929417 14.936260279931341 12.60509743415419 0 0 0
343 1 12.377212446926995 12.385019747883435 12.321791540361373 0 0 0
333 1 12.172564721855073 15.012389578312701 9.716503840213885 0 0 0
342 1 13.560783362189344 13.716829806606114 10.892705330624757 0 0 0
371 1 15.046100833910666 15.194991679615718 12.319116960874469 0 0 0
337 1 17.49337339118134 15.110695569097219 9.686176865344061 0 0 0
470 1 20.396399276557528 12.324944349850455 9.593389667391122 0 0 0
461 1 18.84707059632077 13.847678749106436 10.86895432709053 0 0 0
119 1 1.2435173860944757 17.691631378522874 12.211401777279816 0 0 0
107 1 3.9429077293457206 17.65339736886241 9.564053440832591 0 0 0
244 1 5.2939696850608 16.276623307182547 10.683953140389011 0 0 0
247 1 6.868738722280159 17.575557413093073 12.21597624272001 0 0 0
235 1 9.470144519870752 17.700250993208112 9.5191490708665 0 0 0
372 1 10.72649535574343 16.40018849338672 10.976710085587557 0 0 0
375 1 12.145051520827767 17.68587944775328 12.233988014769174 0 0 0
363 1 14.81215227797193 17.694829148023132 9.565971157855133 0 0 0
503 1 16.404392469795546 16.600533905955505 11.001924784959327 0 0 0
469 1 17.767405982327187 17.656469529336626 12.352342612788012 0 0 0
116 1 21.729326753922443 16.290909344919598 10.76328766705338 -1 0 0
491 1 20.282532908629516 17.66670577189129 9.544663986868347 0 0 0
109 1 1.2492439134658633 20.454679412693153 9.379964355970014 0 0 0
118 1 2.561098046600664 18.9969000940639 10.824680470913329 0 0 0
148 1 5.349918963607946 21.692394528436388 10.729069329900229 0 -1 0
113 1 3.8946338082728094 20.424500793030376 12.069371834594582 0 0 0
237 1 6.819703933551427 20.55511848929931 9.393674415069006 0 0 0
242 1 7.958560260458393 19.04741282868973 10.827199710523326 0 0 0
246 1 9.310791301560977 20.426773308916186 12.238285020351318 0 0 0
365 1 12.23108094527272 20.335288253054518 9.572896107462773 0 0 0
374 1 13.553169014086006 19.103905546231378 11.061573306281785 0 0 0
369 1 14.847819234150501 20.23860733341512 12.406328635412674 0 0 0
502 1 19.200211857652445 18.95116187583433 10.95698689577901 0 0 0
497 1 20.520251227310556 20.32633860140953 12.266477139884879 0 0 0
24 1 2.597395128461518 0.1321842006006754 13.226650708651958 0 0 0
19 1 3.7527959412837473 1.2685341352960675 14.922226137238884 0 0 0
146 1 5.181404551694862 2.767592788546986 13.578564116056029 0 0 0
151 1 6.671510014437983 1.5146581687686145 12.48560129950244 0 0 0
147 1 9.540495599656774 1.2620198370656108 14.89190394326256 0 0 0
274 1 11.010832247219279 2.818201987624667 13.645942029131787 0 0 0
275 1 14.973008400129762 1.310083372350935 15.41005056954895 0 0 0
280 1 13.695750227105187 0.004387031018692401 13.757083170256069 0 0 0
405 1 16.426687012355405 2.6304290220108437 13.760096334295987 0 0 0
18 1 21.708089072158216 2.878295497469907 13.691065522742017 -1 0 0
403 1 20.473833884586313 1.2498687822840542 15.033320578371852 0 0 0
21 1 1.4097744441571434 4.206241956444049 15.160655448043572 0 0 0
56 1 2.604844783687731 5.295766318209854 13.376968876405963 0 0 0
17 1 4.214173078173745 4.187348006126344 12.064468410016431 0 0 0
149 1 6.799333192412002 4.046140395098298 14.915295486434875 0 0 0
184 1 7.97595654293111 5.551676925071953 13.648664179137397 0 0 0
277 1 12.09177115703709 4.253981213624531 15.018695960051518 0 0 0
311 1 13.437916237817669 5.737035993510301 13.598494172132147 0 0 0
444 1 17.7668131230156 4.129826853276051 14.983453516882442 0 0 0
401 1 20.19652954693468 3.889375253118646 12.046868733919803 0 0 0
427 1 19.12526191833367 5.532049871220259 13.611849192703042 0 0 0
220 1 5.4691067041533 8.274076722917943 13.660700582585447 0 0 0
51 1 4.121086429825994 6.802170857696693 14.953841892434331 0 0 0
179 1 9.307164786288702 6.905156641962979 14.974935124314031 0 0 0
182 1 10.578327742323152 8.228060488425438 13.619550593294136 0 0 0
312 1 14.823943634980813 6.996560478627741 15.095736149216032 0 0 0
434 1 16.125524453480352 8.311891661248385 13.558120708638405 0 0 0
435 1 21.756267099595235 8.244972849912928 13.670309456487935 0 0 0
437 1 20.29448917792157 6.877349922742037 14.973582620499013 0 0 0
53 1 1.2793689839796913 9.337325584057872 15.258266017834616 0 0 0
92 1 2.4364455167058408 10.91638948607928 13.764706035195458 0 0 0
88 1 4.050322529386492 9.576077782721427 12.394262323954198 0 0 0
83 1 3.9032867873842845 12.401313999483124 15.14844911393445 0 0 0
222 1 6.669430236221609 9.515380929679194 15.0317085703945 0 0 0
210 1 8.024909301049552 10.786631158656844 13.80366254218898 0 0 0
216 1 9.494561320788364 12.073789848843758 15.001079270030743 0 0 0
309 1 12.258035285654655 9.447273181686713 15.083845331737962 0 0 0
344 1 13.579365151270594 11.041212189562872 13.914604932125485 0 0 0
339 1 15.203789037172472 12.4251540201113 14.923689279784602 0 0 0
466 1 17.760340437014637 9.560517184304567 14.94945490924392 0 0 0
459 1 19.194442687492177 10.98047397648515 13.74176183403262 0 0 0
467 1 20.671194306465505 12.375650480720658 15.075075137647277 0 0 0
87 1 1.3476024959776418 12.066882310841727 12.272683357461416 0 0 0
82 1 1.4765142970196041 15.112505792549477 14.834560239137378 0 0 0
81 1 3.909014457362492 14.964687338907583 12.194209381896414 0 0 0
115 1 5.266980338292691 13.696389758096384 13.637867392830731 0 0 0
213 1 6.7321445650366085 15.009738357234758 15.068307432820012 0 0 0
338 1 10.859897102689196 13.357911581090589 13.661127630615601 0 0 0
376 1 12.115239256844408 14.814513960313445 14.835556855550442 0 0 0
471 1 16.441814453465916 13.932127304713319 13.490075365217924 0 0 0
478 1 17.926282703692998 15.027785972082183 14.834303591719506 0 0 0
465 1 20.40344869302048 14.782456286871035 12.171639837203408 0 0 0
84 1 0.20085408528736437 13.691123901744863 13.541698770371541 0 0 0
120 1 2.720910203838372 16.581910240151224 13.543847620610531 0 0 0
127 1 4.009902435038679 17.880515992245083 14.979255178116174 0 0 0
248 1 8.003934511602804 16.212031783164278 13.66803860892984 0 0 0
243 1 9.394038706002192 17.683493077624696 14.62749936890083 0 0 0
500 1 13.796789382500087 16.322090505065674 13.741348949042743 0 0 0
382 1 14.843647170186419 17.68975765480905 15.142671386161512 0 0 0
504 1 19.20557793288161 16.276493691822235 13.595356889220945 0 0 0
499 1 20.551625439790957 17.727610022589907 14.871059438125153 0 0 0
32 1 1.501406216214745 20.53782936719765 14.682789649017133 0 -1 0
114 1 0.09874710429354838 19.104562111236817 13.600842370915183 0 0 0
126 1 5.333498612231127 19.056640694094476 13.534980331905345 0 0 0
152 1 8.120090065096528 21.64546300601042 13.630429122479287 0 -1 0
245 1 6.649721057579047 20.362663407705238 14.877946552204605 0 0 0
241 1 10.927505591488936 19.285679615962234 13.60168104646949 0 0 0
373 1 12.173852893364298 20.485569795676675 15.133222245251526 0 0 0
476 1 16.32533293139981 19.08329986301715 13.887894150320403 0 0 0
498 1 17.627575591271068 20.44596870352834 15.163632770684867 0 0 0
408 1 19.08117202619617 21.590864645869353 13.653763883661984 0 -1 0
31 1 1.3241859552335586 1.5713723694048864 17.694093726265454 0 0 0
30 1 2.5798162893773995 2.8361223139024423 16.45215816031017 0 0 0
156 1 5.392875078324889 0.018502697134051248 16.2077386529149 0 0 0
159 1 6.559183378505218 1.5528019472555403 17.6054160161774 0 0 0
158 1 8.10470165092936 2.621279543414997 16.121185493299755 0 0 0
287 1 12.1088763515876 1.445014055675567 17.671178524336884 0 0 0
284 1 10.769863274126852 0.0013780927969703413 16.526786249639166 0 0 0
286 1 13.517917779383955 2.7221140981583245 16.412202452536185 0 0 0
415 1 17.85657825839206 1.6631191477167764 17.910034451600477 0 0 0
414 1 19.137855792397612 2.7889559168778315 16.234786091528427 0 0 0
188 1 5.611181187827278 5.561744080299579 16.44136950512833 0 0 0
25 1 4.159211838053975 4.2511475436207595 17.798606831869417 0 0 0
153 1 9.48833163057632 4.044628839502497 17.7285454322232 0 0 0
316 1 10.821426613086256 5.6370664509015835 16.33989679055442 0 0 0
281 1 14.959656710882054 4.09534972861929 17.764420724291945 0 0 0
307 1 16.24964884896157 5.390204991149184 16.312406622981772 0 0 0
60 1 0.13297625952444392 5.620447701388533 16.511188023685687 0 0 0
440 1 20.366815264417482 4.223117938453146 17.616127020967188 0 0 0
62 1 2.8354455394184566 8.244118776508797 16.277895653466853 0 0 0
63 1 1.5225078520790647 7.050141514927877 17.854549742425593 0 0 0
27 1 6.83749339556048 6.896742416690496 17.739824276076742 0 0 0
190 1 8.106124573439537 8.284912019326892 16.440066104425615 0 0 0
319 1 12.000279362618395 7.00923738072719 17.861178098509345 0 0 0
318 1 13.541882795381879 8.246121608978097 16.591722104662974 0 0 0
447 1 17.81767268742179 6.801217365397687 17.911634173899625 0 0 0
446 1 19.00273540991038 8.279042565382436 16.52313863855622 0 0 0
96 1 21.66966393108447 10.824273871192714 16.47593582423563 -1 0 0
211 1 4.313087269582745 9.439144932154429 17.660934293602335 0 0 0
181 1 5.292484914040669 11.02432890276218 16.243601256148374 0 0 0
185 1 9.71733768840271 9.568921587477947 17.766958047033146 0 0 0
217 1 6.5918343918807265 12.260074341802815 17.89102650278895 0 0 0
348 1 11.029974024039108 10.864445704879795 16.381963261481797 0 0 0
346 1 12.524392953094718 12.24702628909041 17.69366576836926 0 0 0
313 1 14.9504178306886 9.614072127159819 17.900499385740144 0 0 0
317 1 16.510436382065176 10.995402648552437 16.457465428908897 0 0 0
479 1 17.716327715394648 12.362219023659014 17.71132000512126 0 0 0
441 1 20.433446742580365 9.557228509157738 17.83881671791278 0 0 0
90 1 1.371311290385204 12.140689084920785 17.83893744969979 0 0 0
94 1 2.400372504553297 13.602624119736092 16.456728045372802 0 0 0
89 1 3.9432552204549376 14.7992180635728 17.66612283935604 0 0 0
306 1 8.021118412182282 13.455160012509932 16.432805965680092 0 0 0
221 1 9.581059620838102 14.99351891947869 17.722942864784443 0 0 0
350 1 13.613509528365862 13.74509164414576 16.181676538542206 0 0 0
345 1 15.090226956020501 15.066452108792573 17.553740915486884 0 0 0
124 1 19.172635372080684 13.656785123694894 16.164079250006598 -1 0 0
510 1 20.536593472223 15.079680451148253 17.644135356017774 0 0 0
473 1 1.432014484409588 17.91182125039388 17.672866044492622 1 0 0
252 1 5.3044712338779005 16.413870721485903 16.261473669534173 0 0 0
255 1 6.7413805736241486 17.69151906712913 17.478889259345436 0 0 0
370 1 10.732748366812412 16.2773998750652 15.933962624403012 0 0 0
341 1 12.167202136806571 17.607843259900662 17.546582705395345 0 0 0
508 1 16.533008592858778 16.445778105943067 16.6281122773448 0 0 0
511 1 17.79843644747885 17.81187928216004 17.74188324501416 0 0 0
85 1 0.17726225009149488 16.456814868594204 16.410060603277696 0 0 0
125 1 2.8349252287687645 19.2689744215495 16.153343496260607 0 0 0
121 1 4.068584037628942 20.567243085528453 17.660769649779933 0 0 0
254 1 7.968954819362765 18.93786046188226 16.032683638014078 0 0 0
249 1 9.31757911115792 20.396155425503157 17.585802541792955 0 0 0
383 1 13.568131776885759 19.015496785578893 16.42632279677742 0 0 0
377 1 14.959539476259879 20.368907987067672 17.75183115344718 0 0 0
412 1 16.43254838962717 0.040415305690050474 16.62302823331833 0 0 0
28 1 0.1697050640544191 21.690317227772763 16.330012699265026 0 -1 0
501 1 19.149401502506393 19.132152180254312 16.32854894486034 0 0 0
117 1 20.50928341620431 20.324483300531213 17.624064806082295 -1 0 0
6 1 2.4701385461429344 2.641418582979987 0.05688291559514269 0 0 0
154 1 4.00091713980468 1.6587648617808552 20.432406221846325 0 0 0
132 1 5.560420971791078 3.167641192177711 18.93476093440402 0 0 -1