LAMMPS data file via write_data, version 10 Sep 2025, timestep = 10000000, units = metal

513 atoms
1 atom types

0 21.800341 xlo xhi
0 21.800341 ylo yhi
0 21.800341 zlo zhi

Masses

1 28.085

Atoms # atomic

513 1 1.2811586251126834 1.6596126669373157 1.3266905943790366 0 0 0
8 1 2.464684922279857 0.01508183855867077 2.7902441156784663 0 0 0
130 1 5.52672050986004 2.852551633972057 2.517835913330043 0 0 0
132 1 6.720413384630138 1.3688911505372134 1.0834988980621734 0 0 0
131 1 7.982403070959579 21.76657086310295 2.592199681173197 0 -1 0
261 1 10.666160229725191 2.7197930713123104 2.5976156823270204 0 0 0
263 1 12.207171994772489 1.437296830049422 1.2418357200936958 0 0 0
264 1 13.610389593789785 0.05335193130896029 2.581660279720563 0 0 0
391 1 17.509562168451875 1.4642259545078993 1.2871374516940641 0 0 0
386 1 16.350633366637826 2.871199053920497 2.759857278888776 0 0 0
2 1 21.636766419410804 2.9000629780638034 2.5807817783255165 -1 0 0
392 1 19.00581047609125 0.17008482223459406 2.556807195027426 0 0 0
4 1 21.47997251010622 0.17524560670204203 0.08473463646677715 -1 0 0
40 1 2.7853219837111793 5.418023534994027 2.494022768075513 0 0 0
6 1 4.086158933845994 4.057302267145818 1.2507560098216162 0 0 0
168 1 8.263015357384024 5.429882852337534 2.6904053189383994 0 0 0
129 1 9.361820596697157 4.183078759082697 1.1847444004783498 0 0 0
257 1 14.865816001832897 4.24823453605277 1.2995858815660106 0 0 0
296 1 13.428622994919301 5.540238424074748 2.874598708011835 0 0 0
424 1 18.887248606604313 5.437489623215434 2.3938220267516996 0 0 0
385 1 20.37254332664539 4.300883060045833 1.0943382567150495 0 0 0
39 1 1.4382287366968562 7.104824605199892 1.4847507257305597 0 0 0
34 1 21.54597012609301 8.458105716540834 2.707239132402662 -1 0 0
162 1 5.365109936922382 8.02306861679266 2.7766117121711726 0 0 0
167 1 6.764254712823965 6.8232970582258385 1.4784178192447015 0 0 0
290 1 10.679450351017861 8.331983493375082 2.6100559563973422 0 0 0
295 1 12.205200863676588 6.999157778398581 1.2612316751579093 0 0 0
423 1 17.359302103977125 6.782720572511853 1.4750886047801237 0 0 0
418 1 16.261739664420446 8.422742623115235 2.6126058810129473 0 0 0
422 1 18.812646584475726 8.330025759397515 0.1316324523560901 0 0 0
72 1 2.5052308266018706 11.085754853888618 2.7363570761422564 0 0 0
71 1 1.0511981518275066 12.424146646433748 1.3722911086170857 0 0 0
33 1 4.077307307212447 9.750367598168207 1.4594548022567735 0 0 0
196 1 5.253622861889149 11.02298095919969 21.752543207507134 0 0 -1
200 1 7.727640914105717 10.996247754808135 2.7517933544754425 0 0 0
199 1 6.569569744095271 12.435555159766013 1.368148688168658 0 0 0
327 1 9.332574983824298 9.818637413209931 1.3248904737718583 0 0 0
347 1 10.787277126570864 10.823923052587649 21.591136792559567 0 0 0
326 1 15.133124801447472 9.64551535881832 1.1613252411951813 0 0 0
328 1 13.556481716042004 11.002304698945355 2.5772525103334125 0 0 0
455 1 17.735108005000644 12.473543293855206 1.31453827667293 0 0 0
456 1 18.965611807083594 11.002198974044806 2.7085009187342877 0 0 0
417 1 20.116057475063275 9.678318612615294 1.3327264313511749 0 0 0
68 1 21.718424236264124 11.041795613077442 21.616026842946997 -1 0 -1
70 1 2.376185591537263 13.828852416483707 21.65797043709949 0 0 -1
194 1 5.130477928941186 13.83067911109731 2.71961826658244 0 0 0
65 1 3.925158988554821 15.140706706872377 1.2093232351282586 0 0 0
193 1 9.321088290240153 14.999645104275626 1.3050907195424573 0 0 0
477 1 12.071964444566808 12.234706040026563 1.2435209532820466 0 0 1
198 1 10.582439591690317 13.50998733296041 2.6101296251788195 0 0 0
349 1 14.968201351774978 15.067259184847314 1.0546413267885262 0 0 1
321 1 16.23287310870508 13.69366172699044 2.5022866370811885 0 0 0
454 1 21.658946950236725 13.761757500309686 2.640035824531165 0 0 0
449 1 20.26123575324751 15.272381429727444 1.3390915757831228 0 0 0
474 1 19.013373602160808 13.893035849139908 21.74747787529833 0 0 0
103 1 1.0927675557945506 17.825647314467435 1.325654807742611 0 0 0
104 1 2.8308921939370677 16.26189406946938 2.6150376375556608 0 0 0
225 1 6.594440431097156 17.851328900818157 1.3696865020229325 0 0 0
232 1 7.991932384977057 16.34247849954559 2.5292045119064688 0 0 0
359 1 12.32944375267697 17.76883761408817 1.079876912172632 0 0 0
360 1 13.56887574636403 16.28639463673286 2.392689816031556 0 0 0
487 1 17.48966437311776 17.710369360383687 1.273656051920833 0 0 0
488 1 18.9000948853247 16.482406059882884 2.6599645015815923 0 0 0
100 1 21.500075878790838 16.5635754771022 21.671299298455576 -1 0 -1
98 1 21.64577467632313 19.12311383931817 2.585830263356843 -1 0 0
231 1 3.8008048951280218 20.67755386978122 1.3219618404342561 0 0 0
226 1 5.251359853165897 19.188394617567987 2.5185211810966295 0 0 0
136 1 9.474496212336787 20.45186398547686 1.4408704327008397 0 -1 0
354 1 11.055777976595108 19.115413314829134 2.561382267947217 0 0 0
353 1 14.770419335590212 20.543626390129532 0.9945693786657868 0 0 0
482 1 16.122747836109863 19.271410287942516 2.38912965744475 0 0 0
481 1 20.41324569009904 20.34336219135811 1.183131358323131 0 0 0
14 1 2.5203562687296106 2.8728564408974333 5.3384141389223565 0 0 0
3 1 4.096893734213526 1.4768634334565083 3.983186819988765 0 0 0
140 1 5.235590516809411 0.06935449315347239 5.210042250049202 0 0 0
142 1 8.04679286865848 2.560506786117935 5.333733035347264 0 0 0
258 1 9.301970218109778 1.3861208024375662 3.774267046228705 0 0 0
268 1 10.919998778147047 0.14887481723993748 5.238412294602119 0 0 0
259 1 14.98283617895029 1.5083191324099612 3.8743325039637906 0 0 0
270 1 13.54791519843259 2.861572720135253 5.2849486361123175 0 0 0
361 1 16.456489319177066 0.16386934463087557 5.126507642290944 0 1 0
387 1 20.146264359692765 1.7120496109113206 3.8333924259782193 0 0 0
398 1 18.881028522268874 3.0838041340282354 5.142507723085052 0 0 0
5 1 1.097141939611934 4.350023136768294 3.810731940080336 0 0 0
44 1 0.04819560640635956 5.877969690214199 5.364175208667481 0 0 0
172 1 5.349428534360881 5.419547283916659 5.382235748045849 0 0 0
133 1 6.999965728779692 4.222851632512752 4.075663832162671 0 0 0
303 1 10.738270218013026 5.396443446941994 5.394333741209828 0 0 0
300 1 12.193565980181726 4.031888168727602 3.991875019354418 0 0 0
389 1 17.439608331365086 4.477328589073963 3.807649275348216 0 0 0
428 1 16.21294652175743 5.787832182035735 5.502042111755676 0 0 0
46 1 2.541732231830216 8.199443872597527 5.502010788177882 0 0 0
35 1 3.9073057681011982 6.7516662412980954 4.279094759887287 0 0 0
174 1 8.090987941145455 8.160896393394516 5.38992701422258 0 0 0
163 1 9.348068599523332 6.790218895830021 3.972168047721902 0 0 0
302 1 13.525509466638814 8.393233490858213 5.335984380493181 0 0 0
291 1 14.869371930687114 7.118732438959057 3.9929220037659148 0 0 0
430 1 18.897918130352764 8.569430908922753 5.353302766738011 0 0 0
419 1 20.311777343973823 6.890719983779097 4.003903903972827 0 0 0
37 1 1.320448751769656 9.659292289634749 4.245666977504004 0 0 0
76 1 21.737253482658144 11.050677140249343 5.533388644182885 -1 0 0
204 1 5.28811494919182 11.088501954566858 5.452742552594728 0 0 0
161 1 6.620792834409182 9.340799203653443 4.1511474004154625 0 0 0
332 1 10.693880046621915 10.98265893857383 5.314097848308493 0 0 0
293 1 12.26595182148045 9.565271465040553 3.933846305861836 0 0 0
195 1 9.234029072988436 12.2524263498222 4.103046145092029 0 0 0
323 1 14.798377382340973 12.574525546762 3.8363831502400987 0 0 0
421 1 17.47695102102066 9.932419921588195 4.158224486112014 0 0 0
460 1 16.055964162561903 11.2840840709554 5.455515446530104 0 0 0
451 1 20.38741814414303 12.360361857143014 4.116667520460141 0 0 0
78 1 2.597971120871128 13.836700289024076 5.38357925942317 0 0 0
69 1 1.0644171475495314 15.124051173843293 3.93139793832305 0 0 0
67 1 4.003470636467701 12.409738613583643 4.024586571233932 0 0 0
197 1 6.6305296608595645 15.017022965995947 4.1493078572044295 0 0 0
165 1 8.172825272354567 13.838537200009048 5.452761095800424 0 0 0
325 1 12.15289430269875 15.122135765967988 3.836560664197829 0 0 0
310 1 13.430150191551666 13.737975211392593 5.286529781618005 0 0 0
450 1 17.53348230517824 15.149857796461607 4.100192980351503 0 0 0
462 1 19.042755027454568 14.074630759055893 5.522090448336692 0 0 0
236 1 5.3380389529959045 16.514869585929425 5.331996562691065 0 0 0
99 1 3.9399513672096096 17.816578663915156 3.9071949887218462 0 0 0
227 1 9.329299694647634 17.825143652676303 3.7916355069942242 0 0 0
364 1 10.82486932618908 16.5677854883243 5.052539705898689 0 0 0
355 1 14.848198247189947 17.86298924194704 3.7174255957295177 0 0 0
484 1 16.068853610312498 16.56342927995321 5.480143519972439 0 0 0
490 1 21.606579122568384 16.60953850817721 5.330754939194393 0 0 0
483 1 20.30128385755379 17.854768102922954 4.044480133314979 0 0 0
101 1 1.2709421512494725 20.304221642204883 4.158295213945706 0 0 0
111 1 2.596321250932947 19.05396574870738 5.281519780311467 0 0 0
238 1 7.948801684884113 19.150778198684698 5.234950469677913 0 0 0
229 1 6.586697864201307 20.386041179617372 3.8775102332524947 0 0 0
357 1 12.155172179644126 20.536035792305196 3.9802229751730263 0 0 0
366 1 13.466337574787284 19.162178094768954 5.169498551666726 0 0 0
485 1 17.62546948144521 20.52399148171296 3.6926921906845833 0 0 0
12 1 21.61404693133737 0.1669345855822739 5.2471914415576055 -1 0 0
494 1 18.904164443756777 19.123373707944552 5.385995278024873 0 0 0
15 1 1.1651395039040744 1.530096515799012 6.594848867922333 0 0 0
16 1 2.5789960635259805 0.20642588567486916 8.039111770238549 0 0 0
138 1 5.485207790559239 3.0596240801191383 8.223408544498946 0 0 0
143 1 6.634822035000535 1.4206089546150857 6.715031187518561 0 0 0
144 1 8.134631467735277 0.0005236012163858869 7.9298251645894995 0 0 0
271 1 12.256268061516552 1.4845162827212701 6.801460613725077 0 0 0
266 1 10.755123749307934 2.9278762876485454 8.094623536626845 0 0 0
404 1 14.74681467264613 1.5868223596710718 9.343583270965118 0 0 0
396 1 17.683591210090487 1.7339163621965215 6.590650022117557 0 0 0
394 1 16.207308446695983 2.815394989386716 7.929196050132471 0 0 0
397 1 18.97971764381056 0.3422205482393597 8.055008025638166 0 0 0
10 1 21.702705300383986 2.9684605153898826 7.923938566945394 -1 0 0
48 1 2.35935526064556 5.795763714939541 7.827828620680169 0 0 0
9 1 4.00233367000855 4.165899760837359 6.8395581329409065 0 0 0
176 1 8.125512498345236 5.4930267463192255 7.917966084018422 0 0 0
137 1 9.458132097797558 3.915297123855421 6.61350642203195 0 0 0
269 1 12.143987488118814 4.425988741915612 9.270846270248986 0 0 0
265 1 14.961925654100801 4.1875520027222395 6.64926451407434 0 0 0
304 1 13.52760043498351 5.5563367064281595 8.01485918302816 0 0 0
432 1 18.899556901631012 5.563987379400459 8.16662356993679 0 0 0
393 1 20.39237270324532 4.282452107218119 6.546942202829496 0 0 0
47 1 1.0111491018744032 7.293218276017359 6.8538084251992295 0 0 0
170 1 5.433208701469247 8.1966845246538 8.278284186642905 0 0 0
175 1 6.630318029723481 6.774652522195632 6.680832674479056 0 0 0
298 1 10.779815410853079 8.287742087976659 8.033886869691788 0 0 0
297 1 12.057568973958723 6.879752219216063 6.560385799055963 0 0 0
431 1 17.78994498665957 6.888812582347438 6.8405936054695635 0 0 0
426 1 16.251980183944468 8.250980167518113 7.907014808031159 0 0 0
42 1 21.57470497879881 8.569426283312778 8.277344108514164 -1 0 0
80 1 2.7214667238158534 11.088514787960515 8.190540203746274 0 0 0
41 1 4.10040867492064 9.584404625917827 6.848052066357192 0 0 0
208 1 8.01691580526024 11.050112800607895 8.270775557864143 0 0 0
205 1 6.85097268954409 12.475899200870156 6.816471595025112 0 0 0
173 1 6.699043444215533 9.795655305930303 9.593614735918635 0 0 0
169 1 9.275927615071971 9.751621501803836 6.8469262546790555 0 0 0
330 1 12.032689408135406 12.37925072098901 6.582953626847559 0 0 0
334 1 14.809321384859881 9.806146188556411 6.718723228325368 0 0 0
336 1 13.399336526989995 11.2780992814626 8.103547498012366 0 0 0
329 1 14.753906287020872 12.656676082856894 9.530391865417677 0 0 0
463 1 17.53056601646973 12.5445603907402 6.7469101166255765 0 0 0
464 1 18.9295424911533 11.129964125902697 8.121211001420024 0 0 0
425 1 20.24953274734066 9.73012260785836 6.806714163278078 0 0 0
66 1 1.3615131397582265 12.388082206185704 6.774075222644547 0 0 0
73 1 4.157884663017358 15.079537226403463 6.620881395657159 0 0 0
202 1 5.475316611327155 13.891213930322705 8.059821760007738 0 0 0
206 1 9.615767343555998 15.23555591808353 6.65229558188279 0 0 0
207 1 10.62010060141087 13.522429339799515 8.04234647228494 0 0 0
333 1 12.048195082215228 15.05373373549033 9.403644653065612 0 0 0
492 1 14.858922697209927 14.996499018309352 6.682351136524623 0 0 0
458 1 16.181318907152722 13.960447183342053 8.19097267451942 0 0 0
74 1 21.795333032243832 13.756335667819151 8.116545217089138 -1 0 0
457 1 20.37464325688142 15.246016436931562 6.970144977449468 0 0 0
491 1 1.3651863632032764 17.74489061388501 6.6905645533025675 1 0 0
110 1 2.8178936692401995 16.395354909857332 7.954903096983666 0 0 0
106 1 0.5565492317387986 18.735986664220352 8.750305088514605 0 0 0
239 1 6.623489266311161 18.078645045586658 6.516708638891171 0 0 0
240 1 8.082001960081605 16.827593980491233 7.851504046747694 0 0 0
362 1 12.237024917177123 17.819979621211687 6.387902638791536 0 0 0
367 1 13.635046076544763 16.335789231793484 8.00191312085528 0 0 0
495 1 17.559050389173823 17.71753035427836 6.802748704537885 0 0 0
502 1 19.09867189035872 16.806573372670663 8.270178971384595 0 0 0
105 1 3.7052181519016436 20.628218425451802 6.578144729444462 0 0 0
234 1 5.1783923488044135 19.336885917249823 7.862429659016667 0 0 0
237 1 6.616126285675653 20.65184713168292 9.268044617697697 0 0 0
233 1 9.577243003821193 20.598508784352397 6.346087134238416 0 0 0
235 1 11.039093844416103 19.169253700318524 7.854572650970323 0 0 0
365 1 12.324412682962848 20.46794402100619 9.42798520395764 0 0 0
267 1 13.65860419525048 0.037940364046777864 7.7677919663746 0 0 0
272 1 15.0929337031017 20.51664202903593 6.368448587494103 0 -1 0
374 1 16.108770603975834 19.270611229632266 8.039875614547222 0 0 0
489 1 20.041806318920663 19.025647459099265 8.644529952790272 0 0 0
400 1 20.30161460859527 20.547913732385314 6.829781701234318 0 -1 0
22 1 2.5303988690999693 2.8922837057520923 10.825788385869442 0 0 0
23 1 1.3175335829021455 1.8101531105769206 12.276822715729807 0 0 0
11 1 3.9822442289227538 1.8144931413292238 9.367713298393108 0 0 0
148 1 5.253845765075404 0.405764581418684 10.541635352561208 0 0 0
150 1 8.246908001455207 2.593021113475275 10.887498408655942 0 0 0
151 1 6.735662998009841 1.5091464024325827 12.225713646548737 0 0 0
139 1 9.285984063287682 1.3751955343092424 9.361326741482946 0 0 0
279 1 12.14883961104333 1.4196495983668662 11.923771085798645 0 0 0
278 1 13.429780279122753 3.0251360428770098 10.604296159318976 0 0 0
407 1 17.862109763836543 1.419903176561525 12.095680111159286 0 0 0
503 1 16.266215515578555 0.48731184079335677 10.721574538862411 0 1 0
399 1 20.483161691072752 1.577640469162905 9.314068224790406 0 0 0
395 1 19.03562245441817 2.9229307062351104 10.755900067871815 0 0 0
20 1 21.67395891583647 0.25065872741694567 10.975270279931964 -1 0 0
13 1 1.2919573599455125 4.2859379714244 9.256057578580593 0 0 0
52 1 0.1028611507136219 5.5569853981536586 10.921854701510824 0 0 0
180 1 5.279734270094132 5.667073652247692 10.839923043994421 0 0 0
17 1 4.058455122201902 4.135474699572136 12.217002848204242 0 0 0
141 1 6.765922809249043 4.300439793015017 9.591311430669874 0 0 0
145 1 9.688869055590063 4.0972696213473405 12.167598433310644 0 0 0
308 1 10.641506324597875 5.683059401316518 10.633555707460769 0 0 0
273 1 14.810854080413737 4.0745372636464126 12.134863746750616 0 0 0
406 1 17.55974558558455 4.309288898833912 9.479355889319985 0 0 0
436 1 16.252671143135665 5.6267742491691175 10.83202966597935 0 0 0
401 1 20.217687540814765 4.3356625646197955 12.0928933852417 0 0 0
54 1 2.6691766733999645 8.179629449313646 10.578027667765413 0 0 0
55 1 1.500820953245149 6.9320027226964624 12.333101710342321 0 0 0
43 1 3.9632774644738293 6.811028958385474 9.296745266880746 0 0 0
182 1 8.003386865172356 8.187819008328226 10.813294094967059 0 0 0
183 1 6.679271554224626 6.8764061078425405 12.223839606413575 0 0 0
171 1 9.27472565809396 7.068586005792496 9.348902744281952 0 0 0
311 1 12.288016572716318 6.908390769440245 12.06669183865691 0 0 0
299 1 14.774159270707466 6.962166701093899 9.447858081517499 0 0 0
312 1 13.492208445224723 8.255131244239465 10.809164687748021 0 0 0
439 1 17.63996408384 6.9479731866711845 12.205187135155215 0 0 0
427 1 20.326264666428617 6.807185915254614 9.50662404352679 0 0 0
438 1 18.974667812924935 8.238053797602763 10.94132758027588 0 0 0
45 1 1.2827887658296913 10.05299984264357 9.55891114074293 0 0 0
87 1 1.2871159412735156 12.376946157241504 12.25438276504601 0 0 0
212 1 5.422944917339689 11.16708880625753 10.96657636660317 0 0 0
49 1 4.0050397064423455 9.583609335362164 12.02356747582529 0 0 0
79 1 4.029916267802026 12.557471932171918 9.578417276090832 0 0 0
301 1 12.158376886166032 9.64323576389625 9.468047394347629 0 0 0
177 1 9.241737653666442 9.571488165651578 12.29109264710249 0 0 0
340 1 10.623691932198776 10.765875975818128 10.855173668324564 0 0 0
214 1 9.208377525509045 12.52871902649832 9.673705749341108 0 0 0
331 1 14.842746870673986 9.563113977638718 12.023023822762259 0 0 0
429 1 17.661663741453502 9.604147530066442 9.438267452741576 0 0 0
471 1 16.100189637916767 10.973381035540772 10.754389774727462 0 0 0
468 1 17.423656665124092 12.184160525300802 12.073420678778392 0 0 0
84 1 21.628189570685397 11.127575315520225 10.929778621546959 -1 0 0
459 1 20.23124697738895 12.452290188765993 9.451746724288663 0 0 0
86 1 1.745547029061874 14.794574249570687 9.351414755687019 0 0 0
75 1 2.84433817267638 13.727101848065086 11.067990749515626 0 0 0
112 1 4.074739588071447 15.287572088534402 12.276259428783382 0 0 0
81 1 6.53296547101795 15.29846402543251 9.433974120517094 0 0 0
215 1 6.6861114729918185 12.615685919451701 12.084325559886999 0 0 0
203 1 7.970113800003839 14.182463003575467 11.019850666153536 0 0 0
343 1 12.14262389419108 12.042828092684625 12.231897007540473 0 0 0
209 1 9.523483972996251 15.232640871112487 12.252597755241606 0 0 0
342 1 13.128867597570947 13.723420066177727 11.071883550783237 0 0 0
337 1 14.633973999194923 15.027521046107099 12.35756623264421 0 0 0
453 1 17.660506022298108 15.369044315040716 9.643021249136222 0 0 0
470 1 18.68786499915347 13.767099726663693 10.798631093996788 0 0 0
461 1 20.015947599701207 15.10868664411789 12.466027719821582 0 0 0
77 1 0.5923446492542351 16.947621968587384 10.268589603283973 0 0 0
114 1 1.1514829076777968 17.833833322756433 12.41189298972114 0 0 0
108 1 3.7859141305754633 18.103855704353908 9.314481190865532 0 0 0
244 1 5.082783474031664 16.5076151026135 10.595957629174617 0 0 0
247 1 6.62699490591904 18.031516156236496 11.863866292330021 0 0 0
201 1 9.504407898432062 17.939855041940543 9.152092598693438 0 0 0
335 1 10.676630841010805 16.563793447588058 10.551707647413362 0 0 0
372 1 12.025601851587757 17.934162025318557 12.161294074889753 0 0 0
496 1 15.072394147500201 17.50830399216524 9.203077652166112 0 0 0
368 1 16.077363075237205 16.36533966866563 10.95526231016567 0 0 0
498 1 17.595295708181062 17.868158232136736 12.287585730600659 0 0 0
500 1 20.125856773276578 16.973680009832723 10.758231670125168 0 0 0
109 1 1.4407143559309703 20.833538733546952 9.492531561646418 0 0 0
118 1 2.621409251806469 19.393263434679746 10.977045892172011 0 0 0
113 1 4.064274136680111 20.741816983767304 12.119335242231951 0 0 0
246 1 8.04646382281763 19.30178414649384 10.600686774111974 0 0 0
276 1 10.652531492743364 21.707411407791525 10.661274972402973 0 -1 0
245 1 9.370020593795228 20.589863977481293 12.186087347442259 0 0 0
363 1 13.73966758403363 18.951012385100334 10.741270086785391 0 0 0
241 1 15.087392466860868 20.586190478557146 12.051179101177642 0 0 0
493 1 17.666172149129242 20.504956010208048 9.451482447487894 0 0 0
116 1 19.046221336590545 19.37336250901803 11.100503687970265 -1 0 0
497 1 20.373929614751717 20.681612371085137 12.39109207975939 0 0 0
24 1 2.6805583316100177 0.3500378932634807 13.544383634945575 0 0 0
30 1 4.010017835895346 1.612821377172674 15.261552318241637 0 0 0
146 1 5.380524636895711 2.9841464133880913 13.75297863830908 0 0 0
152 1 7.993899103682404 0.2254002286463298 13.447726110699948 0 0 0
147 1 9.36627400614358 1.3091135211100968 14.848222113127786 0 0 0
274 1 10.73543278354331 2.598978571650693 13.36671237370266 0 0 0
275 1 15.062308080305817 1.263884186321798 14.731332560903656 0 0 0
280 1 13.52572517401894 0.006342028248775611 13.404618283465442 0 0 0
402 1 16.25447598714651 2.8467868331437294 13.433260084486001 0 0 0
403 1 20.45515845688423 1.5153138847751921 14.761114798236346 0 0 0
408 1 19.18084165323126 0.1133612093781309 13.55140909847665 0 0 0
21 1 1.334797869447922 4.2461207138222505 15.240949787065917 0 0 0
435 1 2.63092364231607 5.36210804202732 13.789494711123327 1 0 0
184 1 8.1303561050893 5.485433960964867 13.328165082034932 0 0 0
149 1 7.008989623821365 4.210332564277316 15.072623268009304 0 0 0
277 1 12.113015301570423 4.0064793550598035 14.672532712823472 0 0 0
316 1 13.452140653800521 5.473979527216171 13.436819113134922 0 0 0
405 1 17.4844763793365 4.05406980950434 14.919706676954902 0 0 0
18 1 21.503327574904183 3.1929486792734867 13.531647845239542 -1 0 0
440 1 19.014485554349285 5.55864817326924 13.856411904381066 0 0 0
178 1 5.237232833829898 8.31623989106863 13.476778211947057 0 0 0
51 1 4.10363842917751 6.792143711369318 14.951773530970202 0 0 0
179 1 9.435622810923983 7.1554253167217885 14.798397348795822 0 0 0
306 1 10.866512024133469 8.291253013300969 13.47756126337808 0 0 0
307 1 14.644030150147378 6.829533472501879 14.867942363249934 0 0 0
434 1 16.165901791253663 8.229959493663666 13.632226932845835 0 0 0
50 1 21.73709725278065 8.188306734084875 13.610145326168194 -1 0 0
446 1 20.39393815780018 6.957826690976764 15.202103227626019 0 0 0
53 1 1.2633886910077032 9.497798176336154 15.072953579740776 0 0 0
88 1 2.570203795887042 10.94160741298282 13.56922015846789 0 0 0
107 1 3.834460667273272 12.647650778867705 14.811919922385828 0 0 0
181 1 6.711110594013491 9.585563657739755 14.97450856504944 0 0 0
216 1 7.772342920551261 11.009228527115852 13.379021395959565 0 0 0
309 1 11.943492168758093 9.626607991893607 14.963432416890795 0 0 0
338 1 9.298462376778378 12.363005044535212 14.82731318322895 0 0 0
344 1 13.447902274718464 10.86595521220893 13.538546906345738 0 0 0
467 1 17.358460270608283 9.566769776622197 14.892561285797969 0 0 0
433 1 20.409432236047785 9.67951791528111 12.387307818865338 0 0 0
472 1 18.772678837625715 10.993383864063 13.566286802828387 0 0 0
94 1 1.281449627258952 15.320737192884916 15.010238535584879 0 0 0
210 1 5.440418271112202 13.840246831185773 13.557530713871682 0 0 0
213 1 6.6230676921002045 15.19155834411082 14.72919936497709 0 0 0
375 1 10.90719717393513 13.47429482391044 13.388517032803728 0 0 0
341 1 12.04159360059415 15.153031613935397 14.615054829240185 0 0 0
339 1 14.712139686891868 12.398626445644647 14.923707431059688 0 0 0
466 1 16.104517921874763 13.683052341661707 13.525113970850946 0 0 0
469 1 17.371331431500053 15.103094273161355 15.192971403906924 0 0 0
465 1 20.420001013529717 12.292364187400477 14.68610650876436 0 0 0
82 1 21.68024238472352 13.974313674990587 13.524892290815645 -1 0 0
120 1 2.776232582737148 16.628921294040765 13.658667073505894 0 0 0
115 1 4.197313995765654 17.95010358690967 14.917830642707832 0 0 0
248 1 7.931569715086939 16.51826617689462 13.37800986203804 0 0 0
243 1 9.348416091384921 17.98843682843662 14.60985104265409 0 0 0
376 1 13.132646873491284 16.68644479879638 13.554010352352428 0 0 0
371 1 14.695541877430216 17.96360867096362 15.12283056689369 0 0 0
504 1 18.76731564942308 16.490169968650054 14.037713823212918 0 0 0
499 1 20.294384994269095 18.058172268357367 15.199428074082725 0 0 0
117 1 1.3531968826702934 20.652386265454513 14.856333371033607 0 0 0
242 1 5.397054064708125 19.347201529528537 13.463809704611393 0 0 0
19 1 6.682127088154941 20.578327491797136 14.940032797854634 0 -1 0
370 1 10.738902019181937 19.349394524865478 13.439907588595359 0 0 0
373 1 12.320456274077888 20.55813512626034 14.754706924526126 0 0 0
369 1 16.263494502944315 19.245043202571352 13.740958189419175 0 0 0
501 1 17.722447282274107 20.669244938918773 14.864242367918745 0 0 0
119 1 21.6875462293624 19.11537587029803 13.719544489995293 -1 0 0
31 1 1.1118948238254245 1.4313735606090805 17.776267094791702 0 0 0
154 1 2.6998444699490056 2.8174960619367515 16.70270992751859 0 0 0
156 1 5.341447850284594 0.14344506089937314 16.31856334702024 0 0 0
159 1 6.749530672816994 1.500993759606252 17.665925765356803 0 0 0
158 1 7.988819245800964 2.739834853221065 16.17145332756881 0 0 0
287 1 12.496264903762102 1.3115705840916776 17.259121430995044 0 0 0
284 1 10.925777907647891 0.076567205279838 16.134478581122806 0 0 0
286 1 13.617816908856655 2.6844048907612867 15.913725528044681 0 0 0
415 1 17.776705426536118 1.6742219378769905 17.679897058637984 0 0 0
412 1 16.37847044424911 0.2464677394456895 16.170814668560922 0 0 0
28 1 21.67539985857269 0.3960656365413975 16.1947731379912 -1 0 0
414 1 18.894450229036682 2.7306103324939865 15.99310590122477 0 0 0
60 1 21.630687038058035 5.647144682464392 16.607113652303127 -1 0 0
56 1 5.39797989173482 5.370279622004719 16.310812925505637 0 0 0
25 1 3.944216277744316 4.370629595828728 17.812884048672686 0 0 0
153 1 9.59873074229739 4.117243465659677 17.615932061996965 0 0 0
314 1 10.6720978416201 5.55529786818702 16.127702764384672 0 0 0
281 1 14.687033005385771 4.128531280308274 17.373274520366824 0 0 0
444 1 16.21955165563434 5.506980559785573 16.31536353435428 0 0 0
409 1 20.103856590496378 4.004919185387271 17.66748765064158 0 0 0
63 1 1.5136272864927711 7.160665228550391 17.623467792209684 0 0 0
62 1 2.7668450516950807 8.430281310309283 16.282234418183116 0 0 0
191 1 6.743859768602211 6.764591828891595 17.653017676171906 0 0 0
190 1 7.9641558173348 8.166309029740997 16.250434797830028 0 0 0
319 1 12.003994686710142 6.988570191840564 17.48693549931408 0 0 0
318 1 13.365123116535228 8.195315689072876 16.36134782487315 0 0 0
447 1 17.75517352455881 6.990667251264708 17.66824637026432 0 0 0
437 1 18.87528930769353 8.40618560825746 16.44176751196575 0 0 0
57 1 4.13897440887441 9.953166670632273 17.659430690486097 0 0 0
220 1 5.421009257867281 11.219515710034782 16.273378469520356 0 0 0
185 1 9.132095991217874 9.627625607560953 17.54005905680325 0 0 0
348 1 10.607534424720805 11.011774525172067 16.265745879078445 0 0 0
351 1 11.952527544133844 12.341003032388977 17.569564606232756 0 0 0
313 1 14.723151578078092 9.686114722592244 17.405122158560268 0 0 0
305 1 16.226199949669798 10.870946877588622 16.31755829514293 0 0 0
479 1 17.667130287372366 12.387997026874363 17.562101383541574 0 0 0
92 1 0.005685229921773782 11.09374342907425 16.265690386904428 0 0 0
441 1 20.317976950304512 9.684762948480257 17.862009343565482 0 0 0
95 1 1.312357368138374 12.450827954377385 17.716719494749455 0 0 0
85 1 2.705492320733616 13.853096027818104 16.31814825300644 0 0 0
89 1 4.173722900329402 15.15305659006493 17.656716932616977 0 0 0
223 1 6.647258270579552 12.367733424099873 17.940940769027698 0 0 0
222 1 8.075405932225326 13.663887714543238 16.14335207884272 0 0 0
217 1 9.464077612960082 14.948666513495997 17.715996902891785 0 0 0
211 1 13.25225133985599 13.848476666662867 16.087044029548274 0 0 0
345 1 14.533786492086739 14.95564644587521 17.70348886530132 0 0 0
478 1 19.03441072386113 13.6372534088631 16.128152448446873 0 0 0
473 1 20.481080613712752 15.14696095191213 17.492938681793838 0 0 0
127 1 1.6259022975908903 17.97624984342243 17.64874316118799 0 0 0
252 1 5.4867560274636284 16.562933791071586 16.125474527734877 0 0 0
255 1 6.86460027660301 17.83719932436407 17.782487148252564 0 0 0
256 1 8.11201080069431 16.273543271584924 19.073482293508576 0 0 0
380 1 10.576619074737748 16.45967063531208 16.004891862545342 0 0 0
377 1 12.020017871990614 17.63746332953087 17.522674030508586 0 0 0
508 1 16.04972342366113 16.605560981542517 16.403181392958345 0 0 0
511 1 17.569419804076215 17.975514888487922 17.53212170466529 0 0 0
124 1 0.08282710975389307 16.809256463206165 16.547722371428485 0 0 0
126 1 2.782919156618922 19.38318322392757 16.317651286778666 0 0 0
121 1 4.2353953422571715 20.477263358801945 17.531413930032265 0 0 0
254 1 8.170221623058746 19.106740043311596 16.175983345899198 0 0 0
249 1 9.346297539240684 20.655375861990045 17.652286642670397 0 0 0
382 1 13.43229229055341 19.18903897040974 16.346897965012097 0 0 0
410 1 14.954320486741326 20.598558304741996 17.463188514851325 0 -1 0
510 1 18.924556018408243 19.51062070581858 16.466919772542887 0 0 0
505 1 20.624104528625296 20.612921497507436 17.672253171592388 0 0 0
1 1 2.684589333034611 2.976407752467632 0.05674740120826982 0 0 0
7 1 2.78481714708653 0.21606909843754876 18.81251504242663 0 0 -1
157 1 5.429538528977127 2.83930600025381 18.894586915153575 0 0 0
27 1 3.9381871476619192 1.613296141308406 20.153657812572177 0 0 0
134 1 8.287415757928281 2.66358924141797 21.634445241912104 0 0 -1
155 1 9.658817227432168 1.4859065408188241 20.128267989430462 0 0 0
282 1 10.978901926364951 2.8526941474353613 18.62529425837556 0 0 0
262 1 13.1707796825241 3.071786622400302 21.665207751476483 0 0 -1
283 1 14.666202533235571 1.6149551679622387 20.469735096855626 0 0 0
288 1 13.671806831788173 0.2264551722521534 18.83352668705157 0 0 0