LAMMPS (10 Sep 2025)
OMP_NUM_THREADS environment is not set. Defaulting to 1 thread.
  using 1 OpenMP thread(s) per MPI task
Loaded 1 plugins from C:\Users\lmike\AppData\Local\LAMMPS 64-bit 10Sep2025 with GUI\plugins
# LAMMPS input generated from LammpsInputFile with pymatgen v2025.10.7

# STYLES
units metal
atom_style atomic

# SET UP CALCULATION
read_data starting_config.dat
Reading data file ...
  orthogonal box = (0 0 0) to (21.800341 21.800341 21.800341)
  1 by 1 by 1 MPI processor grid
  reading atoms ...
  513 atoms
  read_data CPU = 0.003 seconds
pair_style sw
pair_coeff * * Si.sw Si
Reading sw potential file Si.sw with DATE: 2007-06-11
velocity all create 1200 5552113

# CALCULATION PARAMETERS
fix f1 all nvt temp 1200.0 1200.0 $(100.0*dt)
fix f1 all nvt temp 1200.0 1200.0 0.10000000000000000555
thermo 100000
thermo_style custom step temp press spcpu cpuremain

# RUN CALC AND WRITE OUTPUTS
dump d1 all custom 100 state_dump id type x y z vx vy vz
run 10000000
Neighbor list info ...
  update: every = 1 steps, delay = 0 steps, check = yes
  max neighbors/atom: 2000, page size: 100000
  master list distance cutoff = 5.77118
  ghost atom cutoff = 5.77118
  binsize = 2.88559, bins = 8 8 8
  1 neighbor lists, perpetual/occasional/extra = 1 0 0
  (1) pair sw, perpetual
      attributes: full, newton on
      pair build: full/bin/atomonly
      stencil: full/bin/3d
      bin: standard
Per MPI rank memory allocation (min/avg/max) = 3.119 | 3.119 | 3.119 Mbytes
   Step          Temp          Press          S/CPU         CPULeft    
         0   1200           6021.4917      0              0            
    100000   1235.3396      4853.5859      620.82402      15946.548    
    200000   1199.6646      3732.9512      533.67671      17074.324    
    300000   1238.7512      4786.602       694.29955      15923.703    
    400000   1199.1828      3647.9766      547.16223      16205.923    
    500000   1187.8109      3821.3926      450.90742      17043.415    
    600000   1202.6362      3739.4406      545.67168      16924.421    
    700000   1124.953       3642.9101      528.33075      16866.979    
    800000   1201.903       4215.1182      542.17289      16721.007    
    900000   1185.7626      5170.1351      529.90574      16609.658    
   1000000   1237.4656      4530.7572      544.9838       16435.846    
   1100000   1171.3514      4220.9969      537.40477      16281.212    
   1200000   1201.4179      4931.2965      530.97304      16137.866    
   1300000   1171.6363      4694.9106      517.69055      16019.937    
   1400000   1253.7812      4079.1491      531.22455      15861.029    
   1500000   1205.1897      3572.3366      529.95567      15700.764    
   1600000   1156.1976      3277.3105      532.63094      15531.969    
   1700000   1201.6075      4279.1282      548.21396      15334.888    
   1800000   1188.601       3765.8882      542.03846      15148.906    
   1900000   1102.4017      3907.0789      543.96235      14960.298    
   2000000   1111.199       3499.74        540.68019      14776.632    
   2100000   1187.7876      3760.0858      535.14184      14600.044    
   2200000   1174.3547      4451.3016      533.18587      14424.952    
   2300000   1126.3565      3452.0394      537.48349      14243.756    
   2400000   1166.2431      3769.6989      537.09699      14062.579    
   2500000   1237.4083      3507.1866      533.06419      13885.228    
   2600000   1185.4317      4213.2705      533.44448      13706.707    
   2700000   1198.7304      3976.8631      542.99143      13518.613    
   2800000   1250.2524      4658.0932      523.8698       13348.086    
   2900000   1211.2319      4965.306       521.05823      13178.676    
   3000000   1172.8014      3544.0017      527.34071      13002.43     
   3100000   1161.9105      4919.7051      528.10205      12824.713    
   3200000   1184.7069      5069.3902      532.29043      12643.101    
   3300000   1183.9816      4200.2735      541.06098      12454.928    
   3400000   1191.3432      3306.3362      524.36929      12278.372    
   3500000   1163.4835      3755.1014      530.81863      12096.705    
   3600000   1163.2906      3813.6183      529.31019      11915.619    
   3700000   1267.0029      5625.5343      554.08478      11719.725    
   3800000   1228.3285      5216.7819      523.27773      11541.979    
   3900000   1232.2035      3135.1046      529.29911      11360.148    
   4000000   1189.7872      5293.2421      513.84723      11186.484    
   4100000   1143.3805      3124.5494      535.36432      11000.542    
   4200000   1152.9022      2684.7155      531.31202      10816.528    
   4300000   1159.7333      3884.8031      531.8664       10632.058    
   4400000   1245.8467      5143.6519      531.59448      10447.549    
   4500000   1269.7444      5486.3335      537.32534      10260.428    
   4600000   1172.1362      3766.2299      536.08472      10073.856    
   4700000   1169.7591      4312.0882      525.04711      9891.7081    
   4800000   1168.06        3569.4617      522.22529      9710.3287    
   4900000   1191.162       3468.164       538.59934      9522.4776    
   5000000   1241.9142      5368.168       532.03122      9337.006     
   5100000   1146.8112      3768.1737      531.81935      9151.5088    
   5200000   1273.9114      4665.8338      542.1105       8962.6191    
   5300000   1255.7491      4404.9831      530.28264      8777.5451    
   5400000   1183.3829      4811.3336      530.89553      8592.1557    
   5500000   1230.062       4143.1111      520.78464      8409.6504    
   5600000   1189.1809      3417.69        539.61857      8221.5396    
   5700000   1195.3865      3916.4698      530.7144       8035.8724    
   5800000   1165.6122      4428.7815      521.0574       7852.6389    
   5900000   1248.6556      4550.6153      535.11808      7665.6067    
   6000000   1193.0252      4438.0012      533.0046       7479.0738    
   6100000   1142.2901      5289.832       531.92996      7292.7477    
   6200000   1161.5067      4634.8076      531.12331      7106.5428    
   6300000   1242.2724      4658.3532      520.39465      6922.5517    
   6400000   1182.9253      4769.5641      530.98846      6736.1487    
   6500000   1193.0465      4028.9089      531.29021      6549.6289    
   6600000   1208.9293      4394.0285      506.93116      6367.7168    
   6700000   1205.1691      4000.5408      527.33768      6181.5865    
   6800000   1206.9991      3541.9609      521.08645      5996.4238    
   6900000   1200.8909      4787.8787      517.4314       5811.6746    
   7000000   1133.8029      3479.0002      526.55687      5625.2468    
   7100000   1147.4358      3724.8018      521.41656      5439.4855    
   7200000   1208.2449      5463.3869      523.8287       5253.2135    
   7300000   1242.4815      3229.1681      506.64543      5069.2093    
   7400000   1239.2275      4100.5463      534.47426      4881.2328    
   7500000   1213.3549      4541.7733      532.56002      4693.504     
   7600000   1215.105       4506.8773      530.99091      4505.9492    
   7700000   1250.6272      3777.46        523.99709      4319.1251    
   7800000   1194.4204      3600.1919      529.55186      4131.6335    
   7900000   1225.9103      4801.0444      553.16565      3941.9649    
   8000000   1257.3507      4296.521       536.86203      3753.891     
   8100000   1245.7267      4704.3764      513.98729      3567.8062    
   8200000   1185.2307      3520.7061      514.48311      3381.4737    
   8300000   1186.9647      3403.9324      539.50878      3193.1008    
   8400000   1142.7668      3966.4172      527.60501      3005.5963    
   8500000   1200.6422      4515.1284      529.62647      2817.9164    
   8600000   1200.8845      4620.7138      529.17495      2630.2364    
   8700000   1152.0377      3308.5312      530.88389      2442.4357    
   8800000   1150.178       4643.8654      530.25107      2254.6529    
   8900000   1212.5666      4053.8529      500.54931      2068.2351    
   9000000   1204.4541      3879.0881      508.98935      1881.1522    
   9100000   1264.0186      5405.3071      531.13731      1693.0528    
   9200000   1213.4091      5029.4527      525.67664      1505.1196    
   9300000   1260.9675      4301.9517      531.70904      1316.9746    
   9400000   1168.581       4288.2175      545.06394      1128.537     
   9500000   1212.8013      4587.2325      548.84364      940.13762    
   9600000   1155.0921      4333.81        545.65213      751.91173    
   9700000   1176.5131      4366.6232      548.07583      563.76304    
   9800000   1277.929       3764.4936      564.48662      375.62225    
   9900000   1230.4573      4435.7012      560.59426      187.71588    
  10000000   1177.626       4707.1502      594.36689      0            
Loop time of 18752.1 on 1 procs for 10000000 steps with 513 atoms

Performance: 46.075 ns/day, 0.521 hours/ns, 533.273 timesteps/s, 273.569 katom-step/s
99.5% CPU use with 1 MPI tasks x 1 OpenMP threads

MPI task timing breakdown:
Section |  min time  |  avg time  |  max time  |%varavg| %total
---------------------------------------------------------------
Pair    | 18449      | 18449      | 18449      |   0.0 | 98.38
Neigh   | 16.769     | 16.769     | 16.769     |   0.0 |  0.09
Comm    | 42.94      | 42.94      | 42.94      |   0.0 |  0.23
Output  | 161.51     | 161.51     | 161.51     |   0.0 |  0.86
Modify  | 65.568     | 65.568     | 65.568     |   0.0 |  0.35
Other   |            | 16.79      |            |       |  0.09

Nlocal:            513 ave         513 max         513 min
Histogram: 1 0 0 0 0 0 0 0 0 0
Nghost:           1437 ave        1437 max        1437 min
Histogram: 1 0 0 0 0 0 0 0 0 0
Neighs:              0 ave           0 max           0 min
Histogram: 1 0 0 0 0 0 0 0 0 0
FullNghs:        18400 ave       18400 max       18400 min
Histogram: 1 0 0 0 0 0 0 0 0 0

Total # of neighbors = 18400
Ave neighs/atom = 35.867446
Neighbor list builds = 21871
Dangerous builds = 0
write_data FINAL_STRUCTURE
System init for write_data ...
Total wall time: 5:12:32
