LAMMPS (10 Sep 2025)
OMP_NUM_THREADS environment is not set. Defaulting to 1 thread.
  using 1 OpenMP thread(s) per MPI task
Loaded 1 plugins from C:\Users\lmike\AppData\Local\LAMMPS 64-bit 10Sep2025 with GUI\plugins
# LAMMPS input generated from LammpsInputFile with pymatgen v2025.10.7

# STYLES
units metal
atom_style atomic

# SET UP CALCULATION
read_data starting_config.dat
Reading data file ...
  orthogonal box = (0 0 0) to (21.77481 21.77481 21.77481)
  1 by 1 by 1 MPI processor grid
  reading atoms ...
  513 atoms
  read_data CPU = 0.002 seconds
pair_style sw
pair_coeff * * Si.sw Si
Reading sw potential file Si.sw with DATE: 2007-06-11
velocity all create 1200 6330347

# CALCULATION PARAMETERS
fix f1 all nvt temp 1200.0 1200.0 $(100.0*dt)
fix f1 all nvt temp 1200.0 1200.0 0.10000000000000000555
thermo 100000
thermo_style custom step temp press spcpu cpuremain

# RUN CALC AND WRITE OUTPUTS
dump d1 all custom 100 state_dump id type x y z vx vy vz
run 10000000
Neighbor list info ...
  update: every = 1 steps, delay = 0 steps, check = yes
  max neighbors/atom: 2000, page size: 100000
  master list distance cutoff = 5.77118
  ghost atom cutoff = 5.77118
  binsize = 2.88559, bins = 8 8 8
  1 neighbor lists, perpetual/occasional/extra = 1 0 0
  (1) pair sw, perpetual
      attributes: full, newton on
      pair build: full/bin/atomonly
      stencil: full/bin/3d
      bin: standard
Per MPI rank memory allocation (min/avg/max) = 3.119 | 3.119 | 3.119 Mbytes
   Step          Temp          Press          S/CPU         CPULeft    
         0   1200           9620.4559      0              0            
    100000   1199.0211      7378.9599      859.25095      11521.663    
    200000   1184.1471      7510.1998      863.59952      11376.568    
    300000   1237.9052      7544.7138      793.87291      11579.847    
    400000   1165.4327      7047.9859      795.34142      11612.922    
    500000   1138.7661      7192.0013      780.75505      11627.105    
    600000   1151.3633      6467.5184      734.08848      11721.428    
    700000   1221.1056      6946.6814      661.97611      11947.034    
    800000   1251.7885      7886.4618      857.83436      11681.835    
    900000   1153.0511      7907.8911      777.24176      11571.882    
   1000000   1158.1595      7522.3489      862.49028      11343.737    
   1100000   1128.3818      7040.5173      858.54086      11140.307    
   1200000   1269.4701      7760.2         798.63227      11015.444    
   1300000   1234.3473      7375.9986      774.46725      10916.673    
   1400000   1221.7269      6372.7088      765.86935      10822.471    
   1500000   1216.7952      7540.6047      748.63252      10740.455    
   1600000   1248.687       7515.7265      779.71306      10624.04     
   1700000   1239.4073      8900.7046      749.23465      10531.705    
   1800000   1255.2333      8095.1265      764.22126      10422.876    
   1900000   1303.556       7709.4243      775.4467       10303.653    
   2000000   1161.1121      7425.1349      776.51112      10182.75     
   2100000   1240.4219      8757.815       776.62924      10061.023    
   2200000   1165.4887      8065.2964      786.33014      9933.0239    
   2300000   1192.4316      7287.1586      770.40816      9813.8959    
   2400000   1154.5131      7028.9284      769.26291      9694.4904    
   2500000   1211.5192      7688.6211      776.23605      9570.7344    
   2600000   1100.9907      6680.1389      780.99535      9444.354     
   2700000   1207.4041      8369.0918      768.31916      9323.5621    
   2800000   1160.2517      7626.2286      796.15461      9190.4002    
   2900000   1205.9905      7969.525       779.63163      9064.2768    
   3000000   1124.7481      6926.5892      776.03344      8939.3982    
   3100000   1199.3378      7563.45        772.65638      8815.5164    
   3200000   1208.8706      6630.9998      752.56901      8698.629     
   3300000   1259.1792      7157.1973      805.5424       8563.0313    
   3400000   1160.7961      6699.7163      762.29817      8441.778     
   3500000   1206.6245      6479.1006      758.16378      8321.2858    
   3600000   1203.2378      6248.1636      779.04369      8193.8753    
   3700000   1260.6961      8400.5628      763.04407      8070.9962    
   3800000   1221.4609      7059.2487      776.53834      7943.9711    
   3900000   1226.2543      7772.4927      782.73011      7815.2629    
   4000000   1198.948       7624.3825      768.19864      7690.2272    
   4100000   1233.3655      8031.1044      773.43914      7563.6716    
   4200000   1205.1393      7495.0616      769.21396      7437.9664    
   4300000   1242.4486      7723.2902      769.4502       7312.0085    
   4400000   1205.7174      7649.3496      799.17876      7179.7155    
   4500000   1204.0222      7658.1547      777.94225      7051.9157    
   4600000   1261.9896      7966.7735      776.99769      6924.2671    
   4700000   1194.3971      8057.6067      810.91013      6790.5043    
   4800000   1202.4001      7708.5488      762.82718      6665.5975    
   4900000   1169.4208      6859.2475      772.12921      6538.7946    
   5000000   1193.4199      6648.03        785.54515      6409.6714    
   5100000   1108.4991      6537.4226      748.84566      6286.6138    
   5200000   1213.6363      7724.8936      780.70823      6158.1222    
   5300000   1187.3445      7320.7662      767.4369       6031.6102    
   5400000   1233.8355      8941.2337      762.37402      5905.6948    
   5500000   1198.0092      9040.7083      781.74324      5776.9293    
   5600000   1235.0039      8161.6661      773.32568      5649.2881    
   5700000   1217.4653      7153.5436      785.06227      5520.1299    
   5800000   1196.2298      7947.7921      783.92629      5391.1667    
   5900000   1180.7583      7306.4185      773.84488      5263.4058    
   6000000   1200.8396      7408.7274      780.74191      5134.8351    
   6100000   1188.6705      7821.2597      793.02624      5005.0119    
   6200000   1119.2319      8222.6616      768.09672      4877.8172    
   6300000   1214.1763      8249.533       776.56169      4749.6939    
   6400000   1196.9233      7454.0271      789.68779      4620.3463    
   6500000   1228.95        6984.0077      757.18103      4494.0095    
   6600000   1222.6786      6914.1629      780.44053      4365.4715    
   6700000   1145.3827      6958.1585      765.52221      4238.1754    
   6800000   1260.4745      8023.4177      796.97422      4108.3552    
   6900000   1226.5585      7495.1994      788.10547      3979.2954    
   7000000   1221.7604      8514.7253      764.8246       3851.953     
   7100000   1171.3412      8298.4609      773.37646      3723.9241    
   7200000   1245.4283      7245.7892      770.80996      3596.0272    
   7300000   1182.3617      7495.0216      786.53892      3467.1205    
   7400000   1228.8698      7822.5142      776.93867      3338.8134    
   7500000   1200.0746      8040.1575      793.33751      3209.6088    
   7600000   1155.9468      7381.6391      769.63939      3081.7129    
   7700000   1246.4964      7441.9459      781.51572      2953.1743    
   7800000   1256.1671      7286.0964      784.80115      2824.4995    
   7900000   1199.5837      8482.8794      799.11252      2695.2499    
   8000000   1213.2407      8372.0092      799.67775      2566.081     
   8100000   1185.9302      6985.7975      804.97342      2436.8208    
   8200000   1192.8223      7708.5469      769.24242      2308.9499    
   8300000   1237.6957      7331.457       791.28614      2180.2861    
   8400000   1175.6219      7228.2362      808.07801      2051.1765    
   8500000   1163.9087      7491.4062      772.63015      1923.1949    
   8600000   1216.8357      7783.4055      798.42911      1794.4989    
   8700000   1193.6609      7447.218       806.03934      1665.7055    
   8800000   1262.6888      7651.8047      804.82982      1537.0451    
   8900000   1135.712       6567.2748      811.05418      1408.3659    
   9000000   1227.4222      6503.3344      806.57378      1279.8824    
   9100000   1188.3505      8390.3075      809.58345      1151.4523    
   9200000   1182.1664      7563.8577      765.41625      1023.7487    
   9300000   1216.2461      8100.7128      844.87734      895.05688    
   9400000   1215.8217      6975.5906      847.23539      766.56389    
   9500000   1268.8837      6962.4186      842.65701      638.32491    
   9600000   1223.4167      9090.7608      887.02686      510.03789    
   9700000   1126.6244      6763.2989      876.63092      382.11286    
   9800000   1273.2195      9297.8007      893.5293       254.42649    
   9900000   1184.1193      7960.2975      878.34741      127.07827    
  10000000   1140.2716      7074.4728      872.34125      0            
Loop time of 12695.4 on 1 procs for 10000000 steps with 513 atoms

Performance: 68.056 ns/day, 0.353 hours/ns, 787.688 timesteps/s, 404.084 katom-step/s
99.4% CPU use with 1 MPI tasks x 1 OpenMP threads

MPI task timing breakdown:
Section |  min time  |  avg time  |  max time  |%varavg| %total
---------------------------------------------------------------
Pair    | 12478      | 12478      | 12478      |   0.0 | 98.29
Neigh   | 13.544     | 13.544     | 13.544     |   0.0 |  0.11
Comm    | 29.746     | 29.746     | 29.746     |   0.0 |  0.23
Output  | 115.2      | 115.2      | 115.2      |   0.0 |  0.91
Modify  | 47.102     | 47.102     | 47.102     |   0.0 |  0.37
Other   |            | 11.68      |            |       |  0.09

Nlocal:            513 ave         513 max         513 min
Histogram: 1 0 0 0 0 0 0 0 0 0
Nghost:           1440 ave        1440 max        1440 min
Histogram: 1 0 0 0 0 0 0 0 0 0
Neighs:              0 ave           0 max           0 min
Histogram: 1 0 0 0 0 0 0 0 0 0
FullNghs:        18420 ave       18420 max       18420 min
Histogram: 1 0 0 0 0 0 0 0 0 0

Total # of neighbors = 18420
Ave neighs/atom = 35.906433
Neighbor list builds = 22441
Dangerous builds = 0
write_data FINAL_STRUCTURE
System init for write_data ...
Total wall time: 3:31:35
