LAMMPS data file via write_data, version 10 Sep 2025, timestep = 10000000, units = metal

522 atoms
1 atom types

0 21.781566 xlo xhi
0 21.781566 ylo yhi
0 21.781566 zlo zhi

Masses

1 28.085

Atoms # atomic

7 1 1.229899804036866 1.2688064830629526 1.3578188130738518 0 0 0
6 1 2.9486879734308262 2.3545925588727976 21.749992037192236 0 0 -1
172 1 5.694691096671298 2.4425147879247624 2.6633544098147506 0 0 0
135 1 6.874960318139012 1.0916723184752426 1.2870564566614808 0 0 0
136 1 8.176642821914674 21.59362491914047 2.618730227377098 0 -1 0
258 1 10.990509160688276 2.5054088398136956 2.3778819402343614 0 0 0
263 1 12.239452853529645 1.1523280758017755 1.1582146121527077 0 0 0
262 1 13.50133861855291 2.619653021049528 21.557339851866338 0 0 -1
264 1 13.560957259926619 21.688008827260962 2.670590602529342 0 -1 0
391 1 17.66034738973959 1.0790274190528166 1.0964385565820018 0 0 0
386 1 16.229403333872774 2.3953150615214955 2.434985009946572 0 0 0
2 1 21.468562092202685 2.588308756548733 2.577307107313272 -1 0 0
390 1 19.10421403159923 2.53788658366115 21.712608771078585 0 0 -1
40 1 2.6291145522106736 4.978753927925002 2.5299226183096812 0 0 0
130 1 4.16138276890416 3.7549168224884375 1.4180525065858203 0 0 0
261 1 8.149001313001738 5.354489513067363 2.683985328689699 0 0 0
514 1 9.490673805337456 4.112810422150845 1.3032842022262268 0 0 0
257 1 14.775974527966863 3.991291909646177 1.2340255723869413 0 0 0
296 1 13.416041649229395 5.131096488355794 2.7453306098524464 0 0 0
420 1 16.388332906734004 5.159842491060038 21.684971593148976 0 0 -1
424 1 18.83344913938312 5.412373685479627 2.584781102877821 0 0 0
385 1 20.209931769649025 4.078154603151896 1.2401342326447 0 0 0
39 1 1.475947114368633 6.507195104455197 1.198606414017152 0 0 0
517 1 5.4484150037017125 7.967298562456426 2.276695461495744 0 0 0
129 1 7.028067252265129 6.838940262887019 1.1909880315169854 0 0 0
290 1 11.19686505358431 7.985009438587988 2.5583039312063187 0 0 0
295 1 12.31691426034644 6.674852755288688 1.1285867002819154 0 0 0
289 1 15.006398076185713 9.304189844017962 1.098776557967769 0 0 0
423 1 17.513290391648944 6.7510750357817875 1.2200466769790388 0 0 0
418 1 16.109353525574292 8.008714016956386 2.503651457182429 0 0 0
34 1 21.727895938243872 8.002072746159277 2.254397091461497 -1 0 0
35 1 2.8010938617450347 10.772837119860322 2.3931017301667707 0 0 0
71 1 1.4120387547501598 12.180478930112233 1.1370010740811027 0 0 0
33 1 4.248375961701718 9.506150954472215 1.0788199815767356 0 0 0
200 1 8.499881916572017 10.732750836250553 2.5592370331053824 0 0 0
199 1 6.986242263696187 12.057173517506014 1.1943337389167392 0 0 0
161 1 9.745812731359688 9.42799305737464 1.3021224690902644 0 0 0
327 1 12.418872326366868 12.296212654877161 1.1832588801020207 0 0 0
328 1 13.772570771051322 10.70990597869523 2.405871654237986 0 0 0
455 1 17.704656901404267 12.198268347812352 1.3826481794899155 0 0 0
417 1 20.430557117815603 9.505572737202494 1.014284415163869 0 0 0
456 1 19.11619203066281 10.71341677951777 2.599347876962458 0 0 0
65 1 4.123892646553495 14.868570695545172 1.1609519359855633 0 0 0
194 1 5.586627567121449 13.378211009495823 2.547256015867188 0 0 0
198 1 8.248810736463769 13.57443866646214 0.02271603671244904 0 0 0
193 1 9.639988984205852 14.943531517055352 1.1856929875468825 0 0 0
322 1 10.978049420613708 13.602275812961636 2.421665286571459 0 0 0
321 1 15.083976340140579 15.077059009276729 1.3873396304677192 0 0 0
450 1 16.404334395223437 13.55270877349111 2.653987105576999 0 0 0
66 1 0.0842463535821235 13.360645863676575 2.6362362739857668 0 0 0
449 1 20.43855075065039 14.837998694899134 1.2508145960548802 0 0 0
103 1 1.4110120761334808 17.864160436043438 1.2859690819876572 0 0 0
104 1 2.7738667477740853 16.51817137795196 2.3228134997033862 0 0 0
228 1 5.6333254618585675 16.285793843852677 21.672480658854532 0 0 -1
231 1 6.937200674842699 17.54779357719182 1.3556865591251221 0 0 0
232 1 8.339624870444993 16.159017934881962 2.719009215863632 0 0 0
359 1 12.226928291564027 17.38395240419212 1.5374733209781364 0 0 0
356 1 10.873192078774798 16.407510353882333 21.61727520172607 0 0 -1
360 1 13.751409664207594 16.312490464052622 2.905584366070116 0 0 0
487 1 17.657440874922763 17.717198840064633 1.2279015444113954 0 0 0
488 1 19.129707627967004 16.456808717691906 2.5267114636733825 0 0 0
8 1 2.984968118427148 0.18826825979789774 2.6823873494194865 0 0 0
226 1 5.565614754908685 18.972459590455646 2.6229321889340675 0 0 0
97 1 4.293919704640871 20.54208809958953 1.1651165859010808 0 0 0
225 1 9.55860051044439 20.24021734626462 1.2483150047667044 0 0 0
354 1 10.854660511768726 18.982793596640498 2.711803818405511 0 0 0
260 1 10.916793725722165 21.526328824460922 21.72702106611663 0 -1 -1
353 1 14.978841158208992 20.313322410018174 1.4538720735818105 0 0 0
482 1 16.422720698085957 18.895629910752287 2.7626106428170276 0 0 0
388 1 16.281773013640905 21.484491997256384 21.64402195525855 0 -1 -1
98 1 0.005328209277536189 19.21914325954087 2.6282238118383994 0 0 0
392 1 18.924150702952947 21.58510421897328 2.6627200697925777 0 -1 0
481 1 20.322351157578254 20.398669904836574 1.290407335751253 0 0 0
4 1 21.655860694654187 21.618519547407423 21.732825651651815 -1 -1 -1
14 1 2.59166527410124 2.4525288680816053 5.260777144584022 0 0 0
513 1 4.182258987388743 1.3189750127055704 4.088919879323095 0 0 0
140 1 5.492187287212721 0.06429042926102468 5.334749947513085 0 0 0
519 1 8.298408700695733 2.8397281167703827 5.248461604933831 0 0 0
131 1 9.631875961598903 1.2083166378548609 3.94104708352048 0 0 0
259 1 15.014748233238047 1.2969509741115324 4.059533470535622 0 0 0
270 1 13.606732021550597 2.5478313123255765 5.430020472405382 0 0 0
398 1 18.906421010599743 2.629210759741604 5.494527406928681 0 0 0
387 1 20.059455011334116 1.1362118367044987 3.9231658306184216 0 0 0
5 1 1.1401427877261399 3.861924807601185 4.076184076564287 0 0 0
44 1 21.567259087012378 5.22660428296875 5.406364902343136 -1 0 0
1 1 5.320991512387835 5.315937217733717 5.063758154070814 0 0 0
142 1 6.794286520363173 4.007189796051277 3.9831208091854995 0 0 0
300 1 11.070630436433204 5.407584489114266 5.4126370182292325 0 0 0
521 1 12.183728032668979 3.8576034464998954 4.0645587707990405 0 0 0
389 1 17.56667738604674 3.8389049164520888 3.9688841938421895 0 0 0
428 1 16.213999736252962 5.157437916514862 5.299461475370162 0 0 0
46 1 2.753245934492676 8.080427936631756 4.905464852165352 0 0 0
78 1 3.945666303963272 6.65724775963723 3.549087908821948 0 0 0
87 1 5.18582990610079 8.759504456619643 5.617258171169842 0 0 0
170 1 8.301268937316092 8.077607770331442 4.975901778094016 0 0 0
3 1 6.877201574770217 9.174925939862764 3.8041444186180255 0 0 0
163 1 9.77042709702129 6.518121236589693 3.9696608516256213 0 0 0
302 1 13.635874416586452 8.083780970349157 5.594819230577259 0 0 0
291 1 14.861066105958132 6.605787303304178 4.057966672174249 0 0 0
421 1 17.7029218234636 9.320611041127162 3.939243006803808 0 0 0
430 1 19.033639940550806 7.964893228816096 5.210253627960044 0 0 0
419 1 20.31958666255245 6.613067914944635 3.90685271294813 0 0 0
515 1 1.2870691757915134 9.603799891920294 3.615996346544815 0 0 0
212 1 4.194011483099769 11.235115149943102 5.7170285326809775 0 0 0
214 1 6.378145054317814 11.744956023080329 4.49857271058714 0 0 0
332 1 11.24674429363683 10.92917272911325 5.0501668810894 0 0 0
195 1 9.755407449073319 12.225069589963281 3.7240404187170473 0 0 0
293 1 12.569307286819516 9.447873238758708 3.949694564583077 0 0 0
460 1 16.38823167788544 10.647562553050642 5.611314166997326 0 0 0
76 1 21.685365331573145 10.507754097598479 5.355800582165492 -1 0 0
451 1 20.45009552265409 12.147964561892843 4.023893981668265 0 0 0
522 1 2.2966424502591094 13.973633167815219 4.996633602195884 0 0 0
69 1 1.1111617884678613 15.267155747755721 3.443106808288815 0 0 0
42 1 0.6269154615615654 12.696027582280054 6.073966040075501 0 0 0
67 1 3.64790586246015 12.48619766713822 3.736983831764308 0 0 0
73 1 3.7436745395434117 14.99158865925261 6.498868602814113 0 0 0
197 1 6.8079860907128165 14.877567712711336 3.9616319334979893 0 0 0
206 1 8.309604296046984 13.62871609417497 5.308211757624238 0 0 0
325 1 12.440128601052255 14.675153032009174 3.806438163236907 0 0 0
323 1 15.088062348536539 11.971314505801372 3.943702814072104 0 0 0
334 1 13.907276850267154 13.359846526758774 5.238021909506972 0 0 0
453 1 17.766537211508066 15.016450666666369 3.995735268011642 0 0 0
462 1 19.14294379888605 13.543737627238174 5.412533170903833 0 0 0
108 1 0.2732168118403848 16.39624192716612 5.293603315736896 0 0 0
99 1 4.191411337448527 17.491067598406243 3.9606191815263867 0 0 0
236 1 5.31394534399881 16.072916111643686 5.364346705817577 0 0 0
227 1 9.447480275272847 17.67741727163558 4.049011827571691 0 0 0
364 1 11.260794876158553 16.30602990902486 5.177626238708591 0 0 0
355 1 15.02554808801709 17.66175123478197 4.168867446994771 0 0 0
492 1 16.467965160424335 16.20705786072276 5.568481524573495 0 0 0
483 1 20.454851805145033 17.677848344918953 4.007409175233434 0 0 0
12 1 21.667289356608787 0.1273287592951235 5.317842444339645 -1 0 0
110 1 2.755253421000298 19.072227454657174 5.18830752173881 0 0 0
101 1 1.463807258923889 20.56799194863066 4.056247622869317 0 0 0
238 1 8.181722530916677 19.043062203639394 5.409869225993058 0 0 0
229 1 6.783163740706876 20.334039176077162 4.004571439373278 0 0 0
268 1 10.904145800291564 21.72156635158471 5.311087370963097 0 -1 0
357 1 12.133067910846085 20.299926328793934 4.089226498496482 0 0 0
366 1 13.830854201950359 19.216740554188725 5.339043241636742 0 0 0
396 1 16.512207169345498 21.685448382084545 5.309658781182625 0 -1 0
485 1 17.784075855461907 20.144527157334007 4.089561896278514 0 0 0
494 1 19.084340439052355 18.784238253916843 5.613932195124179 0 0 0
15 1 1.2695922389771317 1.2543437193982128 6.889032834536429 0 0 0
16 1 2.6855488440583946 21.746030731063737 7.974286042245774 0 -1 0
138 1 5.576548564302622 2.675999678853937 8.016464372635111 0 0 0
143 1 7.0318402573178735 1.2953939744403662 6.692307134313162 0 0 0
144 1 8.323138659459268 21.673331716122057 7.8784305946223485 0 -1 0
266 1 11.033085087710859 2.6700521630168796 8.044207780367515 0 0 0
271 1 12.399064067379312 1.056454770559543 6.739124507818026 0 0 0
399 1 17.793090324150754 1.2319426460039902 6.865632790780162 0 0 0
394 1 16.440739672283353 2.710385887655829 8.055378163520592 0 0 0
10 1 21.706714044752697 2.6730526931934095 8.21693109049959 -1 0 0
516 1 2.6035758488862597 5.315196514559816 7.639963237887709 0 0 0
133 1 3.958508108016635 3.8085761469268884 6.399901804801474 0 0 0
176 1 8.506702594751776 5.246873527212906 8.146826074180996 0 0 0
137 1 9.700606905055364 4.018423945929765 6.627302244463009 0 0 0
265 1 14.81146282476372 3.9405598408025666 6.798342280071386 0 0 0
304 1 13.767217251243544 5.433410551529456 8.190748894083567 0 0 0
397 1 17.65758174893084 3.9517143439967244 9.607737202528442 0 0 0
432 1 18.94157949183077 5.525544215330602 8.195549606237753 0 0 0
393 1 20.240516639272357 4.075002118937111 6.930706925877904 0 0 0
47 1 1.2586046314636683 6.833021716372217 6.248128562109893 0 0 0
54 1 2.9424970540554076 8.484442947611065 8.198479142007903 0 0 0
167 1 4.526299127746911 6.860859463994384 7.08243874614159 0 0 0
177 1 5.994975618732267 6.987108087122014 8.770400846891405 0 0 0
72 1 7.338564194582128 6.201765097330789 6.29464935786794 0 0 0
178 1 8.041992902938034 8.526356394522915 8.043597923721354 0 0 0
298 1 11.191901460561777 7.992730389159829 8.23333354522028 0 0 0
169 1 9.970007354115754 9.185137098013618 6.434800755028044 0 0 0
303 1 12.407477199774933 6.638734594766396 6.9989720737880905 0 0 0
431 1 17.678687287019784 6.59723417885224 6.580603832955932 0 0 0
426 1 16.475869313938492 7.814928709769056 7.981104329240589 0 0 0
168 1 0.08641341673379088 8.128065879343975 8.184816039864524 0 0 0
207 1 2.168901632593274 10.289571485712948 6.635389854212116 0 0 0
48 1 1.4347825637268579 11.48316685303824 8.559601423095886 0 0 0
165 1 4.40862229444153 9.946035614130613 9.116025837559938 0 0 0
182 1 3.3476470639692835 12.193514685546381 9.45977024009336 0 0 0
208 1 6.166240003649309 9.870067316517137 7.510921776892534 0 0 0
43 1 7.317251119262985 11.888698977927461 7.167041272943543 0 0 0
216 1 9.585575298598647 11.405463622158662 7.740134530796912 0 0 0
335 1 12.322710695622005 12.257602316601872 6.726740920246978 0 0 0
297 1 15.02263568468201 9.437361941174863 7.0100922360032385 0 0 0
336 1 13.699005057605016 10.982524597551624 8.319024946583182 0 0 0
463 1 17.87262694937759 12.290316448096316 6.661944069902755 0 0 0
425 1 20.248329964727652 9.346441990208543 6.8492217172582635 0 0 0
464 1 18.922182878258667 10.87943035419501 8.138694064161161 0 0 0
81 1 4.2670789449164666 12.957464689484055 7.459972186244015 0 0 0
203 1 6.288957553608109 13.008582494190636 8.907468973997428 0 0 0
201 1 9.683061182473768 15.28445942027166 6.630527255700851 0 0 0
330 1 10.999367372019018 13.736846940076589 8.004284002749245 0 0 0
329 1 14.941217237240181 14.741159286900203 6.68829653616928 0 0 0
458 1 16.411833954350232 13.515206313614176 8.069835742950579 0 0 0
461 1 17.649998460558947 14.883419089989983 9.505978849889209 0 0 0
74 1 21.53827549482618 13.641407128093245 8.120620855540144 -1 0 0
457 1 20.454553390541545 15.079823288380851 6.542459170237228 0 0 0
111 1 1.4709961032208565 17.846120894078386 6.678064415915267 0 0 0
112 1 2.508585689354178 16.34014116961281 8.008458144254744 0 0 0
239 1 6.680255983155982 17.65670414972898 6.6147362576633 0 0 0
240 1 8.157934816084477 16.543494460094806 8.060168564319252 0 0 0
367 1 12.545145399625977 17.789695656494388 6.570573198953729 0 0 0
368 1 13.617336005521112 16.21789659731173 7.9690448121257145 0 0 0
495 1 17.724611465436997 17.510849004213526 6.942187267497007 0 0 0
496 1 19.201378156714924 16.151133529605215 8.222186857806426 0 0 0
106 1 0.09523655340511183 19.021867398150864 8.14737821291609 0 0 0
234 1 5.3218065014508555 19.056470229085026 8.145304793529496 0 0 0
105 1 4.034693429940169 20.41983582793426 6.655546590871337 0 0 0
233 1 9.834532179254161 20.294423290509698 6.822118109868576 0 0 0
362 1 11.324031978760216 19.105188659936704 8.181215936971855 0 0 0
272 1 14.010956179307794 21.683318784904124 8.339703918272162 0 -1 0
361 1 15.179371247688497 20.291768809129735 6.621725880940151 0 0 0
490 1 16.464209420111747 19.12296345374133 8.012545314927136 0 0 0
400 1 19.251917653800298 21.59055382845458 8.053260174631953 0 -1 0
489 1 20.562426813234058 20.18414166079346 6.6450612205253075 0 0 0
22 1 2.6746611663677426 2.7174719810539103 10.623546753128057 0 0 0
23 1 1.2148835524407193 1.310082138651164 11.990474661856366 0 0 0
20 1 0.10801453723119181 21.624759528100245 10.676073799855693 0 -1 0
11 1 4.204139958101672 1.3347794178188512 9.264459810823864 0 0 0
148 1 5.393365759166995 21.746112373322013 10.647813700542295 0 -1 0
150 1 8.174413242820728 2.4835952588074313 10.79431820831676 0 0 0
151 1 6.77053531820734 1.2736961430796765 12.144808721390293 0 0 0
139 1 9.565131052879437 1.331522148762627 9.440738500146423 0 0 0
279 1 12.16912540481444 1.4348970991718597 12.345393165773695 0 0 0
267 1 15.169758010016526 1.3761432234170583 9.608283942490733 0 0 0
278 1 13.675363608302609 2.734480158407672 10.850683678435113 0 0 0
404 1 16.389711179956628 0.03360971569724983 10.937024370083623 0 0 0
395 1 20.564328475840178 1.2769862176852211 9.627580460464888 0 0 0
406 1 19.121047926487893 2.680310566417006 10.868447950576236 0 0 0
13 1 1.1873614948494535 4.2560141098552196 9.42135266332109 0 0 0
52 1 21.61874706017234 5.6342109310513075 10.985497214437498 -1 0 0
180 1 5.881645213452464 5.3281624054929955 11.097284333062765 0 0 0
17 1 3.966245115162922 4.163666889903827 12.235885364480334 0 0 0
141 1 6.977380366955233 4.017384584154842 9.445900108159698 0 0 0
269 1 12.45151249157506 4.0425620856655975 9.390503183445661 0 0 0
308 1 11.077208701048141 5.232590843636432 10.845279035530343 0 0 0
145 1 9.515634601536352 3.88557636299029 12.201117240036604 0 0 0
273 1 15.035746871497905 4.079690972452128 12.290609922387867 0 0 0
436 1 16.335256316707657 5.471737958787148 10.9494698088456 0 0 0
401 1 20.50732348378837 3.9966390992572434 12.188768713001672 0 0 0
518 1 2.7630742697627153 8.040852756663394 11.088964788073099 0 0 0
9 1 1.1143656607849526 9.525119831568256 9.976149024829304 0 0 0
175 1 3.4785488181078 5.949058206486037 10.0705787778871 0 0 0
41 1 4.011854485362137 9.463082804716382 12.684354685828172 0 0 0
205 1 5.810489427032058 8.820310256374508 10.714721080235575 0 0 0
45 1 8.510286204613008 7.888936938026357 11.088375452897873 0 0 0
171 1 9.712436814126338 6.739034698329407 9.633297217504346 0 0 0
311 1 12.228734415889281 6.662872854114346 12.251178632628147 0 0 0
299 1 15.137865825898977 6.725357527163341 9.568793762451907 0 0 0
310 1 13.87982509180207 7.9116819168005685 10.952287637258072 0 0 0
305 1 14.974766528071163 9.4859202143201 12.226369818688124 0 0 0
439 1 17.687516859642166 6.723626441845733 12.471841708597728 0 0 0
429 1 17.46914254810779 9.473184655551 9.368632509724863 0 0 0
427 1 20.110576371878476 6.983893955788703 9.605015226555375 0 0 0
438 1 18.829114853150404 8.160337287939093 10.98868592261659 0 0 0
86 1 1.0155841014256581 12.18427519414998 12.504743047202654 0 0 0
162 1 4.386216847035429 11.612152485445666 11.70648471566596 0 0 0
202 1 8.502947718260414 10.32275474505049 9.837948898040558 0 0 0
80 1 6.514644487481302 11.475543459436276 10.603121690941776 0 0 0
181 1 11.324190854375443 10.871081366007022 11.044565393625588 0 0 0
183 1 9.785786593985499 9.582712750534835 12.355065474393982 0 0 0
301 1 12.439411359975702 9.48464782154027 9.641028320859618 0 0 0
331 1 15.050535180430334 12.264439189914366 9.458558145592125 0 0 0
468 1 16.21667001359275 10.865608402149068 10.82921948481203 0 0 0
471 1 17.57472678114972 12.241605872374047 12.191551550254529 0 0 0
84 1 21.401459888624228 10.935382167589692 11.061348009740714 -1 0 0
433 1 20.120921945700474 9.445973547255765 12.386166617193378 0 0 0
459 1 20.15151220960771 12.244072873356135 9.403960427216537 0 0 0
77 1 1.2466945038826884 14.831655292817612 9.397820091581481 0 0 0
75 1 2.3353938621250756 13.68246630479189 11.064492070333344 0 0 0
210 1 3.9273411434613825 14.929302050499585 12.229057662552064 0 0 0
79 1 6.953290125482524 15.278140995209759 9.617102031573271 0 0 0
174 1 8.52299693731488 13.981584162130014 11.063419098852108 0 0 0
204 1 10.08896291050309 12.526747025690005 10.064714589353681 0 0 0
333 1 12.255319413475712 14.997277890949203 9.45179067164134 0 0 0
209 1 9.738658175969265 15.206158013758097 12.604201547566255 0 0 0
342 1 13.840416380233869 13.706268571047703 10.832023781842043 0 0 0
337 1 15.04193531690523 15.160026398137889 12.052976802293916 0 0 0
470 1 18.885849050250965 13.606138512068709 10.899093879239102 0 0 0
465 1 20.418929107913314 14.910209739440374 12.154695562217013 0 0 0
119 1 1.2077878726850935 17.76419151862572 12.188475638731413 0 0 0
107 1 3.8561068409088683 17.54829832985155 9.38901896950502 0 0 0
244 1 5.277864850525103 16.341198767533957 10.975276422350314 0 0 0
247 1 6.850984339869513 17.8223643578972 12.092070220208278 0 0 0
235 1 9.71428881925623 17.772428895244282 9.545413705599664 0 0 0
372 1 10.980176552753727 16.353063367056766 10.941480539872671 0 0 0
375 1 12.506533042249215 17.942203024764087 12.146281983501972 0 0 0
363 1 14.972069808698267 17.81080294418532 9.217457647696756 0 0 0
500 1 16.35072476417463 16.309792325113886 10.502514928632948 0 0 0
503 1 17.794279661600036 17.652234945244697 12.2213387386014 0 0 0
491 1 20.53432962397602 17.56142166093712 9.46813457905121 0 0 0
116 1 0.0458760035497803 16.176000923130342 10.841336618793491 0 0 0
109 1 1.3330742602909644 20.363968944481766 9.454205380526911 0 0 0
118 1 2.588490959564418 19.075285920846667 10.780493062402439 0 0 0
113 1 4.016269323934891 20.35230365879221 11.981577750433939 0 0 0
237 1 6.808965034190046 20.485170120592482 9.348453085171169 0 0 0
246 1 8.320633621661738 19.317099338901414 10.788509680022504 0 0 0
276 1 10.86172221536262 0.04919811543981852 11.037410671079394 0 0 0
241 1 9.623662643130602 20.411838786033453 12.180553379451938 0 0 0
365 1 12.345756850590021 20.52287370258435 9.601833922127001 0 0 0
374 1 13.978253635925743 19.311524263175542 10.739732969455016 0 0 0
369 1 15.132415310889268 20.497177753093784 12.461540460913914 0 0 0
493 1 17.84524195943896 20.45373087954638 9.39383777679146 0 0 0
502 1 19.118023222121753 19.0092527161491 10.751386023749696 0 0 0
497 1 20.28358194752576 20.288118827220956 12.17871445965248 0 0 0
24 1 2.5854741545337507 21.76184438067407 13.449423253095441 0 -1 0
19 1 3.968732167719597 1.1986741536708485 14.845796791658183 0 0 0
146 1 5.147610434986815 2.547084221164562 13.43384733773549 0 0 0
152 1 8.183870381866864 0.03084042732266964 13.546836291191367 0 0 0
147 1 9.499033667128149 1.5252238999143386 14.96726471333565 0 0 0
274 1 10.837723514032174 2.72463309841708 13.673533943604216 0 0 0
275 1 14.904510364933586 1.3462670012659101 15.056374526198672 0 0 0
407 1 17.6917567915845 1.181432868610137 12.273857212595848 0 0 0
402 1 16.371070421578636 2.5059240815514996 13.480911943493464 0 0 0
18 1 21.660662621696858 2.418255634675219 13.537717931832391 -1 0 0
403 1 20.116410471678424 1.3370350523255514 15.064466403859624 0 0 0
21 1 1.1647737942979846 3.9841757816862673 14.868368153981091 0 0 0
56 1 2.6400608324986896 5.3413453832639775 13.727129097344156 0 0 0
149 1 6.665728635858221 3.922663876206548 14.832729179231178 0 0 0
184 1 8.132105336814213 5.203953214202198 13.764417984363888 0 0 0
277 1 12.251692074826938 3.948294003310133 14.910925406703619 0 0 0
312 1 13.607715965347884 5.350849779163622 13.639313857699666 0 0 0
405 1 17.77164223920956 3.8466271576719127 14.736758607637615 0 0 0
440 1 19.049936873906063 5.2652836564440495 13.763990830434436 0 0 0
55 1 1.3694597335114915 6.844098016641762 12.355646557381418 0 0 0
53 1 1.2354001150194318 9.18157364138276 15.289662229076379 0 0 0
51 1 3.9992169360358014 6.650092385239822 15.151879711877983 0 0 0
220 1 5.512063405544468 8.069058484450936 13.790319738645277 0 0 0
173 1 6.990063789580061 6.709133281891209 12.535122622870242 0 0 0
211 1 6.910971998954363 9.415069924691949 15.136081244896134 0 0 0
179 1 9.569707926493583 6.4038517255623555 15.102064368686067 0 0 0
306 1 10.961303179680392 7.85295943512494 13.860766433036817 0 0 0
307 1 15.068413326775444 6.682320573348481 14.911167209982382 0 0 0
434 1 16.51116380086121 8.150753667611395 13.740281904995616 0 0 0
50 1 21.538852840854368 8.222944369959938 13.682685682494796 -1 0 0
435 1 20.27400608481167 6.646294488470048 15.141556171040865 0 0 0
49 1 2.251241002870941 10.714190536398844 13.88115101119972 0 0 0
83 1 3.8902700514181427 12.00680163180497 14.902095099668399 0 0 0
520 1 8.335625873660756 10.775850579710264 13.680105917819608 0 0 0
343 1 12.59803492437688 12.316834849782943 12.317998086089085 0 0 0
215 1 9.510820897782923 12.153433274709494 15.120819166232799 0 0 0
309 1 12.246674568105558 9.575283222985664 14.804523111132326 0 0 0
344 1 13.774030276167371 10.826303346089123 13.58998555981807 0 0 0
339 1 14.896800345757226 12.091185154111754 15.040238769531424 0 0 0
437 1 17.73278584560085 9.436576681524691 15.145957012739604 0 0 0
472 1 18.89020449217214 10.932394284706007 13.812430961437117 0 0 0
467 1 20.3522680720819 12.214645737126665 14.962382573042769 0 0 0
85 1 1.4089939259403403 15.041604753771336 14.792298188336257 0 0 0
37 1 5.383265970794176 13.468748128824336 13.5908873716226 0 0 0
340 1 7.216714412707333 12.503942257537183 12.622440204474374 0 0 0
213 1 6.891706299485398 15.14039627141919 14.771171616018037 0 0 0
338 1 10.916008518995799 13.358035272088795 13.701242004447066 0 0 0
341 1 12.11864747151767 15.181928896134254 14.904316854637996 0 0 0
466 1 16.013082978867438 13.63620598979957 13.516955924909091 0 0 0
469 1 17.691429724371297 14.871470009591086 15.044928138046538 0 0 0
82 1 21.56774445809853 13.66404228815903 13.729690862275064 -1 0 0
120 1 2.7096263127607325 16.539250786462752 13.5507969585282 0 0 0
115 1 4.277318057043831 17.532205469005042 14.869754459061351 0 0 0
248 1 8.282250316467922 16.496326834268334 13.545643796982258 0 0 0
243 1 9.73303163738973 17.824385425758326 14.870992053609212 0 0 0
371 1 14.87091792346219 17.70145467482906 15.01121846964687 0 0 0
376 1 13.656247753901722 16.49776857571244 13.409745276895315 0 0 0
504 1 18.97251496609287 16.15583261402695 13.63876256411825 0 0 0
499 1 20.243988152732467 17.607723813889617 15.04530658241467 0 0 0
117 1 1.3219838463057072 20.170964118107023 14.806431899638943 0 0 0
242 1 5.548081225621241 19.077299207503593 13.521246142481003 0 0 0
245 1 6.756519296162558 20.585350455281475 14.879218754577977 0 0 0
370 1 10.982146965170843 18.97802445834782 13.561720310294884 0 0 0
373 1 12.219104666440359 20.519720501966386 14.96796156644093 0 0 0
280 1 13.674384028080386 0.14629211974964207 13.58301147693253 0 0 0
498 1 16.370244453595518 18.92369448536784 13.633463602509051 0 0 0
501 1 17.642160834195952 20.390852674744288 14.988476349719175 0 0 0
114 1 21.57734522961933 18.94751625634666 13.679941589826276 -1 0 0
408 1 19.081870640685782 21.619410414464426 13.711550563410825 0 -1 0
31 1 1.3460980050412414 1.233025095293764 17.427860562267497 0 0 0
30 1 2.62273731473991 2.730602317781988 16.13250572865418 0 0 0
28 1 21.670882162066317 21.55761810854312 16.133417235312418 -1 -1 0
158 1 8.069400283461622 2.6789895903430043 16.35177110466471 0 0 0
159 1 6.8049224387351135 1.0768498191379938 17.54074715283462 0 0 0
287 1 12.171999151585553 1.2764064703450653 17.504570535914684 0 0 0
286 1 13.607436642167004 2.7060318026784005 16.375907199790138 0 0 0
415 1 17.59258750955101 1.292329068809027 17.721510195357016 0 0 0
414 1 18.78755611624044 2.7693465025206443 16.311142806628787 0 0 0
60 1 21.734399255774594 5.1928388901504 16.4050776925808 -1 0 0
25 1 4.16494653164771 3.8446763299617492 17.554232579099875 0 0 0
188 1 5.60464264252583 5.3093613304018685 16.37238535481185 0 0 0
153 1 9.310393424174316 3.9039541468895216 17.83879038375186 0 0 0
316 1 10.99193886424038 5.131795982304819 16.48983184111591 0 0 0
281 1 15.139808789844077 4.036049035727701 17.618872922896042 0 0 0
444 1 16.574727844859098 5.301641880959579 16.213847180908616 0 0 0
409 1 20.353282228945794 3.733409882302805 17.80673621913048 0 0 0
63 1 1.2528968391876256 6.7273978452375225 17.849399307796688 0 0 0
62 1 2.7493245588010717 7.95383917098667 16.463892969460655 0 0 0
191 1 6.831089662478059 6.847891073599713 17.64631548874907 0 0 0
190 1 8.17659386237238 7.959475573512292 16.15391079466972 0 0 0
319 1 12.3623986079683 6.700583571492596 17.52351597759238 0 0 0
318 1 13.59382470892899 8.103934071277461 16.115933160084452 0 0 0
447 1 17.66260459712279 6.764115935207957 17.625350439485878 0 0 0
446 1 19.119681178780553 8.149123082754826 16.44032978399852 0 0 0
95 1 1.4216455512303139 12.299755095949633 17.545713887707734 0 0 0
57 1 4.132577168527923 9.36662083584776 17.658715880999296 0 0 0
88 1 5.417165123059857 10.806276604774176 16.31243816071063 0 0 0
223 1 6.8552032835725605 12.258178156462138 17.586955929873874 0 0 0
185 1 9.519851459390578 9.081056422600147 17.675222607927598 0 0 0
348 1 10.697977205973313 10.757557337176902 16.55840646819268 0 0 0
351 1 12.305248859218828 12.134227726758889 17.677654774966214 0 0 0
313 1 15.093714967426163 9.441036137654066 17.670225061933518 0 0 0
476 1 16.396312292685653 10.829608748989434 16.33902213829875 0 0 0
479 1 17.538949835573913 12.293957970888309 17.81233626004181 0 0 0
92 1 0.004158676517406765 10.880795917896023 16.35457860561698 0 0 0
441 1 20.42480361194884 9.583444904609035 17.74991607634175 0 0 0
94 1 2.7491342874745532 13.611961761114106 16.08176294376486 0 0 0
89 1 4.212157202253379 14.848669520841305 17.26674364829216 0 0 0
222 1 8.188676643322461 13.718806378560194 16.278498858000756 0 0 0
217 1 9.770962891366715 14.88636557153526 17.69415387107462 0 0 0
345 1 14.843817825844136 14.986517517503305 17.66184789003163 0 0 0
350 1 13.426067468623899 13.578057850145935 16.206616365492124 0 0 0
478 1 18.924358927686576 13.428988109628744 16.571763218080996 0 0 0
473 1 20.307142705009497 14.974721715003263 17.861912263775153 0 0 0
127 1 1.395614294573463 17.583616636244766 17.746231569596244 0 0 0
252 1 5.614717754242515 16.328847689591 16.097109514010786 0 0 0
255 1 7.034683435513489 17.574791484693225 17.52493332669027 0 0 0
380 1 10.898010301322495 16.47574833300774 16.27831454409724 0 0 0
383 1 12.283143696986528 17.792042173749945 17.630924958100138 0 0 0
508 1 16.18996751685579 16.27415045611654 16.22163478965937 0 0 0
511 1 17.428641199364645 17.607144145047894 17.658891096643632 0 0 0
124 1 21.717635471317074 16.18505184528949 16.285992416162273 -1 0 0
126 1 2.657018457767703 18.81092219967446 16.15828994448183 0 0 0
156 1 5.285929450597627 21.674065268521403 16.302070862510202 0 -1 0
121 1 4.201293154889011 20.062877451564727 17.566996599493454 0 0 0
254 1 8.180528431380695 19.164644013459313 16.180976492055578 0 0 0
284 1 10.69608857151649 0.09652726212119234 16.21438186247023 0 0 0
249 1 9.347154849601253 20.462748995483523 17.587126835072763 0 0 0
382 1 13.673971378780221 19.067725109593166 16.354527290873996 0 0 0
377 1 15.04043812368377 20.246635124932066 17.793562383563934 0 0 0
412 1 16.29396026619858 21.694495118167154 16.41107096337299 0 -1 0
510 1 18.840017268775746 18.89571538338284 16.311605289808575 0 0 0