LAMMPS (10 Sep 2025)
OMP_NUM_THREADS environment is not set. Defaulting to 1 thread.
  using 1 OpenMP thread(s) per MPI task
Loaded 1 plugins from C:\Users\lmike\AppData\Local\LAMMPS 64-bit 10Sep2025 with GUI\plugins
# LAMMPS input generated from LammpsInputFile with pymatgen v2025.10.7

# STYLES
units metal
atom_style atomic

# SET UP CALCULATION
read_data starting_config.dat
Reading data file ...
  orthogonal box = (0 0 0) to (21.781566 21.781566 21.781566)
  1 by 1 by 1 MPI processor grid
  reading atoms ...
  522 atoms
  read_data CPU = 0.003 seconds
pair_style sw
pair_coeff * * Si.sw Si
Reading sw potential file Si.sw with DATE: 2007-06-11
velocity all create 1000 2785847

# CALCULATION PARAMETERS
fix f1 all nvt temp 1000.0 1000.0 $(100.0*dt)
fix f1 all nvt temp 1000.0 1000.0 0.10000000000000000555
thermo 100000
thermo_style custom step temp press spcpu cpuremain

# RUN CALC AND WRITE OUTPUTS
dump d1 all custom 100 state_dump id type x y z vx vy vz
run 10000000
Neighbor list info ...
  update: every = 1 steps, delay = 0 steps, check = yes
  max neighbors/atom: 2000, page size: 100000
  master list distance cutoff = 5.77118
  ghost atom cutoff = 5.77118
  binsize = 2.88559, bins = 8 8 8
  1 neighbor lists, perpetual/occasional/extra = 1 0 0
  (1) pair sw, perpetual
      attributes: full, newton on
      pair build: full/bin/atomonly
      stencil: full/bin/3d
      bin: standard
Per MPI rank memory allocation (min/avg/max) = 3.121 | 3.121 | 3.121 Mbytes
   Step          Temp          Press          S/CPU         CPULeft    
         0   1000           84903.004      0              0            
    100000   1001.7128      20400.655      433.14889      22855.882    
    200000   1047.0591      20380.094      445.33791      22315.388    
    300000   957.97597      19817.51       563.54246      20462.635    
    400000   919.99203      18216.122      443.17071      20604.281    
    500000   1031.4532      18509.05       452.30276      20512.448    
    600000   1038.2467      21919.68       438.98742      20482.592    
    700000   985.85906      20331.472      453.53831      20299.084    
    800000   1040.0246      20611.326      446.50847      20146.251    
    900000   952.23103      15981.788      453.88193      19940.826    
   1000000   965.9813       21725.797      453.52194      19733.995    
   1100000   993.70271      21069.666      434.6611       19602.091    
   1200000   1042.1078      19719.539      450.22056      19395.521    
   1300000   1043.5889      18877.147      455.26701      19170.082    
   1400000   970.15187      18371.582      455.23765      18945.558    
   1500000   1061.0069      21202.389      458.98626      18711.515    
   1600000   954.55879      18961.436      436.58725      18538.177    
   1700000   1000.9059      20101.99       453.85696      18315.732    
   1800000   1001.9971      19470.912      451.4093       18098.965    
   1900000   978.97214      20503.748      454.51014      17875.253    
   2000000   1049.2165      18391.883      453.66058      17653.559    
   2100000   984.65878      19709.489      453.76912      17431.787    
   2200000   1006.5151      17976.74       456.82072      17204.922    
   2300000   1038.243       18441.521      461.50634      16971.309    
   2400000   1001.5051      16944.319      440.44117      16771.924    
   2500000   1032.9948      18343.991      452.8934       16551.599    
   2600000   975.15562      18322.837      445.19877      16342.099    
   2700000   995.67101      19266.01       463.00052      16108.128    
   2800000   992.03122      18690.432      461.8655       15876.808    
   2900000   955.71504      19670.354      450.41267      15659.987    
   3000000   1015.2373      19530.572      445.07985      15449.027    
   3100000   981.9765       17037.333      460.87923      15220.038    
   3200000   1027.1296      19817.588      448.33281      15004.703    
   3300000   928.87137      16068.338      438.52064      14799.033    
   3400000   945.91926      19351.159      457.79113      14573.414    
   3500000   976.3726       19419.919      442.46662      14362.255    
   3600000   989.83771      19260.277      445.03266      14147.955    
   3700000   1073.5008      20016.394      448.64707      13930.01     
   3800000   995.24687      16819.487      446.37922      13713.652    
   3900000   948.68117      18778.157      436.58994      13504.758    
   4000000   952.08531      17928.437      435.36552      13295.823    
   4100000   986.63155      16808.814      449.73894      13075.311    
   4200000   1010.6794      17447.692      445.10203      12857.91     
   4300000   1037.0404      21860.305      442.61069      12641.848    
   4400000   987.83582      18735.905      452.28681      12419.185    
   4500000   980.80215      17371.426      443.07682      12202.209    
   4600000   992.08902      19446.044      443.98298      11984.314    
   4700000   1085.967       20081.823      458.78734      11757.91     
   4800000   999.63605      20166.413      445.16536      11539.083    
   4900000   1010.799       22305.269      444.79951      11320.212    
   5000000   964.57782      19070.931      448.68376      11099.156    
   5100000   999.33631      17744.479      448.86275      10877.943    
   5200000   1033.3148      20491.763      445.71695      10658.122    
   5300000   998.57423      21613.176      443.93842      10438.926    
   5400000   984.55179      18631.831      449.65822      10217.065    
   5500000   1029.0108      17820.422      451.40025      9994.483     
   5600000   1031.9305      21337.963      468.28228      9765.663     
   5700000   947.63162      18395.11       452.21969      9543.1009    
   5800000   961.37057      19525.384      445.55698      9322.9828    
   5900000   1043.7371      18596.602      438.32901      9105.29      
   6000000   945.29076      21034.907      443.94359      8885.3255    
   6100000   939.46855      18541.077      455.20686      8661.6242    
   6200000   968.6847       15940.701      454.2736       8438.3292    
   6300000   945.94528      18495.192      456.5021       8214.5035    
   6400000   1068.9604      18376.573      442.70863      7994.6659    
   6500000   1008.9911      18460.782      434.27836      7777.0035    
   6600000   965.33045      18902.797      466.37627      7550.795     
   6700000   961.99404      22832.48       457.97002      7326.877     
   6800000   970.76135      19390.574      450.21281      7104.8931    
   6900000   996.53269      23226.422      440.59869      6885.0828    
   7000000   1039.7761      19994.766      442.04005      6664.7509    
   7100000   1033.9491      19669.59       446.90992      6443.2462    
   7200000   976.19823      20640.246      451.824        6220.7325    
   7300000   985.83797      19946.839      437.03443      6001.0216    
   7400000   969.03414      19335.354      438.47578      5780.8003    
   7500000   973.62561      20244.259      449.93399      5558.434     
   7600000   977.13392      18305.623      441.96328      5337.3363    
   7700000   1018.0775      19556.998      457.25086      5113.8449    
   7800000   999.87557      20231.237      462.26812      4889.8069    
   7900000   1003.246       22372.673      468.42997      4665.2077    
   8000000   1009.9338      19383.537      466.93498      4441.0574    
   8100000   968.68746      19316.808      470.76142      4216.7454    
   8200000   1033.251       22358.486      468.03388      3992.9952    
   8300000   1098.9882      19354.195      483.03897      3768.1286    
   8400000   975.67333      17152.182      497.9309       3542.5076    
   8500000   1039.8798      20249.655      498.63951      3317.4195    
   8600000   1012.5537      21257.757      509.60057      3092.2       
   8700000   995.62328      18570.371      502.49717      2868.0613    
   8800000   957.92191      20862.309      542.23461      2642.5051    
   8900000   1042.4627      22930.588      550.73772      2417.5214    
   9000000   951.517        19098.685      621.65416      2191.2007    
   9100000   986.24639      21469.462      656.50892      1965.4742    
   9200000   977.51233      21060.253      681.5549       1740.8566    
   9300000   1009.9863      22637.612      698.24936      1517.6501    
   9400000   1050.521       20211.588      704.4208       1296.0655    
   9500000   946.40599      17557.567      698.17177      1076.2241    
   9600000   960.21742      18390.504      697.47539      857.98468    
   9700000   953.34184      19866.625      706.17532      641.23423    
   9800000   994.17903      19669.678      716.14748      425.97706    
   9900000   1024.2927      18153.37       718.8844       212.24223    
  10000000   999.38417      19347.015      737.25571      0            
Loop time of 21147.6 on 1 procs for 10000000 steps with 522 atoms

Performance: 40.856 ns/day, 0.587 hours/ns, 472.866 timesteps/s, 246.836 katom-step/s
99.6% CPU use with 1 MPI tasks x 1 OpenMP threads

MPI task timing breakdown:
Section |  min time  |  avg time  |  max time  |%varavg| %total
---------------------------------------------------------------
Pair    | 20835      | 20835      | 20835      |   0.0 | 98.52
Neigh   | 39.526     | 39.526     | 39.526     |   0.0 |  0.19
Comm    | 43.589     | 43.589     | 43.589     |   0.0 |  0.21
Output  | 147.64     | 147.64     | 147.64     |   0.0 |  0.70
Modify  | 64.746     | 64.746     | 64.746     |   0.0 |  0.31
Other   |            | 16.93      |            |       |  0.08

Nlocal:            522 ave         522 max         522 min
Histogram: 1 0 0 0 0 0 0 0 0 0
Nghost:           1452 ave        1452 max        1452 min
Histogram: 1 0 0 0 0 0 0 0 0 0
Neighs:              0 ave           0 max           0 min
Histogram: 1 0 0 0 0 0 0 0 0 0
FullNghs:        19116 ave       19116 max       19116 min
Histogram: 1 0 0 0 0 0 0 0 0 0

Total # of neighbors = 19116
Ave neighs/atom = 36.62069
Neighbor list builds = 51609
Dangerous builds = 0
write_data FINAL_STRUCTURE
System init for write_data ...
Total wall time: 5:52:27
