Generated by pymatgen.io.lammps.data.LammpsData

522  atoms

  1  atom types

0.000000 21.781566  xlo xhi
0.000000 21.781566  ylo yhi
0.000000 21.781566  zlo zhi

Masses

1  28.085

Atoms

1    1   4.084044   4.084044   1.361348
2    1   0.000000   2.722696   2.722696
3    1   4.084044   1.361348   4.084044
4    1   0.000000   0.000000   0.000000
5    1   1.361348   4.084044   4.084044
6    1   2.722696   2.722696   0.000000
7    1   1.361348   1.361348   1.361348
8    1   2.722696   0.000000   2.722696
9    1   4.084044   4.084044   6.806739
10   1   0.000000   2.722696   8.168087
11   1   4.084044   1.361348   9.529435
12   1   0.000000   0.000000   5.445391
13   1   1.361348   4.084044   9.529435
14   1   2.722696   2.722696   5.445391
15   1   1.361348   1.361348   6.806739
16   1   2.722696   0.000000   8.168087
17   1   4.084044   4.084044  12.252131
18   1   0.000000   2.722696  13.613479
19   1   4.084044   1.361348  14.974827
20   1   0.000000   0.000000  10.890783
21   1   1.361348   4.084044  14.974827
22   1   2.722696   2.722696  10.890783
23   1   1.361348   1.361348  12.252131
24   1   2.722696   0.000000  13.613479
25   1   4.084044   4.084044  17.697522
26   1   0.000000   2.722696  19.058870
27   1   4.084044   1.361348  20.420218
28   1   0.000000   0.000000  16.336174
29   1   1.361348   4.084044  20.420218
30   1   2.722696   2.722696  16.336174
31   1   1.361348   1.361348  17.697522
32   1   2.722696   0.000000  19.058870
33   1   4.084044   9.529435   1.361348
34   1   0.000000   8.168087   2.722696
35   1   4.084044   6.806739   4.084044
36   1   0.000000   5.445391   0.000000
37   1   1.361348   9.529435   4.084044
38   1   2.722696   8.168087   0.000000
39   1   1.361348   6.806739   1.361348
40   1   2.722696   5.445391   2.722696
41   1   4.084044   9.529435   6.806739
42   1   0.000000   8.168087   8.168087
43   1   4.084044   6.806739   9.529435
44   1   0.000000   5.445391   5.445391
45   1   1.361348   9.529435   9.529435
46   1   2.722696   8.168087   5.445391
47   1   1.361348   6.806739   6.806739
48   1   2.722696   5.445391   8.168087
49   1   4.084044   9.529435  12.252131
50   1   0.000000   8.168087  13.613479
51   1   4.084044   6.806739  14.974827
52   1   0.000000   5.445391  10.890783
53   1   1.361348   9.529435  14.974827
54   1   2.722696   8.168087  10.890783
55   1   1.361348   6.806739  12.252131
56   1   2.722696   5.445391  13.613479
57   1   4.084044   9.529435  17.697522
58   1   0.000000   8.168087  19.058870
59   1   4.084044   6.806739  20.420218
60   1   0.000000   5.445391  16.336174
61   1   1.361348   9.529435  20.420218
62   1   2.722696   8.168087  16.336174
63   1   1.361348   6.806739  17.697522
64   1   2.722696   5.445391  19.058870
65   1   4.084044  14.974827   1.361348
66   1   0.000000  13.613479   2.722696
67   1   4.084044  12.252131   4.084044
68   1   0.000000  10.890783   0.000000
69   1   1.361348  14.974827   4.084044
70   1   2.722696  13.613479   0.000000
71   1   1.361348  12.252131   1.361348
72   1   2.722696  10.890783   2.722696
73   1   4.084044  14.974827   6.806739
74   1   0.000000  13.613479   8.168087
75   1   4.084044  12.252131   9.529435
76   1   0.000000  10.890783   5.445391
77   1   1.361348  14.974827   9.529435
78   1   2.722696  13.613479   5.445391
79   1   1.361348  12.252131   6.806739
80   1   2.722696  10.890783   8.168087
81   1   4.084044  14.974827  12.252131
82   1   0.000000  13.613479  13.613479
83   1   4.084044  12.252131  14.974827
84   1   0.000000  10.890783  10.890783
85   1   1.361348  14.974827  14.974827
86   1   2.722696  13.613479  10.890783
87   1   1.361348  12.252131  12.252131
88   1   2.722696  10.890783  13.613479
89   1   4.084044  14.974827  17.697522
90   1   0.000000  13.613479  19.058870
91   1   4.084044  12.252131  20.420218
92   1   0.000000  10.890783  16.336174
93   1   1.361348  14.974827  20.420218
94   1   2.722696  13.613479  16.336174
95   1   1.361348  12.252131  17.697522
96   1   2.722696  10.890783  19.058870
97   1   4.084044  20.420218   1.361348
98   1   0.000000  19.058870   2.722696
99   1   4.084044  17.697522   4.084044
100  1   0.000000  16.336174   0.000000
101  1   1.361348  20.420218   4.084044
102  1   2.722696  19.058870   0.000000
103  1   1.361348  17.697522   1.361348
104  1   2.722696  16.336174   2.722696
105  1   4.084044  20.420218   6.806739
106  1   0.000000  19.058870   8.168087
107  1   4.084044  17.697522   9.529435
108  1   0.000000  16.336174   5.445391
109  1   1.361348  20.420218   9.529435
110  1   2.722696  19.058870   5.445391
111  1   1.361348  17.697522   6.806739
112  1   2.722696  16.336174   8.168087
113  1   4.084044  20.420218  12.252131
114  1   0.000000  19.058870  13.613479
115  1   4.084044  17.697522  14.974827
116  1   0.000000  16.336174  10.890783
117  1   1.361348  20.420218  14.974827
118  1   2.722696  19.058870  10.890783
119  1   1.361348  17.697522  12.252131
120  1   2.722696  16.336174  13.613479
121  1   4.084044  20.420218  17.697522
122  1   0.000000  19.058870  19.058870
123  1   4.084044  17.697522  20.420218
124  1   0.000000  16.336174  16.336174
125  1   1.361348  20.420218  20.420218
126  1   2.722696  19.058870  16.336174
127  1   1.361348  17.697522  17.697522
128  1   2.722696  16.336174  19.058870
129  1   9.529435   4.084044   1.361348
130  1   5.445391   2.722696   2.722696
131  1   9.529435   1.361348   4.084044
132  1   5.445391   0.000000   0.000000
133  1   6.806739   4.084044   4.084044
134  1   8.168087   2.722696   0.000000
135  1   6.806739   1.361348   1.361348
136  1   8.168087   0.000000   2.722696
137  1   9.529435   4.084044   6.806739
138  1   5.445391   2.722696   8.168087
139  1   9.529435   1.361348   9.529435
140  1   5.445391   0.000000   5.445391
141  1   6.806739   4.084044   9.529435
142  1   8.168087   2.722696   5.445391
143  1   6.806739   1.361348   6.806739
144  1   8.168087   0.000000   8.168087
145  1   9.529435   4.084044  12.252131
146  1   5.445391   2.722696  13.613479
147  1   9.529435   1.361348  14.974827
148  1   5.445391   0.000000  10.890783
149  1   6.806739   4.084044  14.974827
150  1   8.168087   2.722696  10.890783
151  1   6.806739   1.361348  12.252131
152  1   8.168087   0.000000  13.613479
153  1   9.529435   4.084044  17.697522
154  1   5.445391   2.722696  19.058870
155  1   9.529435   1.361348  20.420218
156  1   5.445391   0.000000  16.336174
157  1   6.806739   4.084044  20.420218
158  1   8.168087   2.722696  16.336174
159  1   6.806739   1.361348  17.697522
160  1   8.168087   0.000000  19.058870
161  1   9.529435   9.529435   1.361348
162  1   5.445391   8.168087   2.722696
163  1   9.529435   6.806739   4.084044
164  1   5.445391   5.445391   0.000000
165  1   6.806739   9.529435   4.084044
166  1   8.168087   8.168087   0.000000
167  1   6.806739   6.806739   1.361348
168  1   8.168087   5.445391   2.722696
169  1   9.529435   9.529435   6.806739
170  1   5.445391   8.168087   8.168087
171  1   9.529435   6.806739   9.529435
172  1   5.445391   5.445391   5.445391
173  1   6.806739   9.529435   9.529435
174  1   8.168087   8.168087   5.445391
175  1   6.806739   6.806739   6.806739
176  1   8.168087   5.445391   8.168087
177  1   9.529435   9.529435  12.252131
178  1   5.445391   8.168087  13.613479
179  1   9.529435   6.806739  14.974827
180  1   5.445391   5.445391  10.890783
181  1   6.806739   9.529435  14.974827
182  1   8.168087   8.168087  10.890783
183  1   6.806739   6.806739  12.252131
184  1   8.168087   5.445391  13.613479
185  1   9.529435   9.529435  17.697522
186  1   5.445391   8.168087  19.058870
187  1   9.529435   6.806739  20.420218
188  1   5.445391   5.445391  16.336174
189  1   6.806739   9.529435  20.420218
190  1   8.168087   8.168087  16.336174
191  1   6.806739   6.806739  17.697522
192  1   8.168087   5.445391  19.058870
193  1   9.529435  14.974827   1.361348
194  1   5.445391  13.613479   2.722696
195  1   9.529435  12.252131   4.084044
196  1   5.445391  10.890783   0.000000
197  1   6.806739  14.974827   4.084044
198  1   8.168087  13.613479   0.000000
199  1   6.806739  12.252131   1.361348
200  1   8.168087  10.890783   2.722696
201  1   9.529435  14.974827   6.806739
202  1   5.445391  13.613479   8.168087
203  1   9.529435  12.252131   9.529435
204  1   5.445391  10.890783   5.445391
205  1   6.806739  14.974827   9.529435
206  1   8.168087  13.613479   5.445391
207  1   6.806739  12.252131   6.806739
208  1   8.168087  10.890783   8.168087
209  1   9.529435  14.974827  12.252131
210  1   5.445391  13.613479  13.613479
211  1   9.529435  12.252131  14.974827
212  1   5.445391  10.890783  10.890783
213  1   6.806739  14.974827  14.974827
214  1   8.168087  13.613479  10.890783
215  1   6.806739  12.252131  12.252131
216  1   8.168087  10.890783  13.613479
217  1   9.529435  14.974827  17.697522
218  1   5.445391  13.613479  19.058870
219  1   9.529435  12.252131  20.420218
220  1   5.445391  10.890783  16.336174
221  1   6.806739  14.974827  20.420218
222  1   8.168087  13.613479  16.336174
223  1   6.806739  12.252131  17.697522
224  1   8.168087  10.890783  19.058870
225  1   9.529435  20.420218   1.361348
226  1   5.445391  19.058870   2.722696
227  1   9.529435  17.697522   4.084044
228  1   5.445391  16.336174   0.000000
229  1   6.806739  20.420218   4.084044
230  1   8.168087  19.058870   0.000000
231  1   6.806739  17.697522   1.361348
232  1   8.168087  16.336174   2.722696
233  1   9.529435  20.420218   6.806739
234  1   5.445391  19.058870   8.168087
235  1   9.529435  17.697522   9.529435
236  1   5.445391  16.336174   5.445391
237  1   6.806739  20.420218   9.529435
238  1   8.168087  19.058870   5.445391
239  1   6.806739  17.697522   6.806739
240  1   8.168087  16.336174   8.168087
241  1   9.529435  20.420218  12.252131
242  1   5.445391  19.058870  13.613479
243  1   9.529435  17.697522  14.974827
244  1   5.445391  16.336174  10.890783
245  1   6.806739  20.420218  14.974827
246  1   8.168087  19.058870  10.890783
247  1   6.806739  17.697522  12.252131
248  1   8.168087  16.336174  13.613479
249  1   9.529435  20.420218  17.697522
250  1   5.445391  19.058870  19.058870
251  1   9.529435  17.697522  20.420218
252  1   5.445391  16.336174  16.336174
253  1   6.806739  20.420218  20.420218
254  1   8.168087  19.058870  16.336174
255  1   6.806739  17.697522  17.697522
256  1   8.168087  16.336174  19.058870
257  1  14.974827   4.084044   1.361348
258  1  10.890783   2.722696   2.722696
259  1  14.974827   1.361348   4.084044
260  1  10.890783   0.000000   0.000000
261  1  12.252131   4.084044   4.084044
262  1  13.613479   2.722696   0.000000
263  1  12.252131   1.361348   1.361348
264  1  13.613479   0.000000   2.722696
265  1  14.974827   4.084044   6.806739
266  1  10.890783   2.722696   8.168087
267  1  14.974827   1.361348   9.529435
268  1  10.890783   0.000000   5.445391
269  1  12.252131   4.084044   9.529435
270  1  13.613479   2.722696   5.445391
271  1  12.252131   1.361348   6.806739
272  1  13.613479   0.000000   8.168087
273  1  14.974827   4.084044  12.252131
274  1  10.890783   2.722696  13.613479
275  1  14.974827   1.361348  14.974827
276  1  10.890783   0.000000  10.890783
277  1  12.252131   4.084044  14.974827
278  1  13.613479   2.722696  10.890783
279  1  12.252131   1.361348  12.252131
280  1  13.613479   0.000000  13.613479
281  1  14.974827   4.084044  17.697522
282  1  10.890783   2.722696  19.058870
283  1  14.974827   1.361348  20.420218
284  1  10.890783   0.000000  16.336174
285  1  12.252131   4.084044  20.420218
286  1  13.613479   2.722696  16.336174
287  1  12.252131   1.361348  17.697522
288  1  13.613479   0.000000  19.058870
289  1  14.974827   9.529435   1.361348
290  1  10.890783   8.168087   2.722696
291  1  14.974827   6.806739   4.084044
292  1  10.890783   5.445391   0.000000
293  1  12.252131   9.529435   4.084044
294  1  13.613479   8.168087   0.000000
295  1  12.252131   6.806739   1.361348
296  1  13.613479   5.445391   2.722696
297  1  14.974827   9.529435   6.806739
298  1  10.890783   8.168087   8.168087
299  1  14.974827   6.806739   9.529435
300  1  10.890783   5.445391   5.445391
301  1  12.252131   9.529435   9.529435
302  1  13.613479   8.168087   5.445391
303  1  12.252131   6.806739   6.806739
304  1  13.613479   5.445391   8.168087
305  1  14.974827   9.529435  12.252131
306  1  10.890783   8.168087  13.613479
307  1  14.974827   6.806739  14.974827
308  1  10.890783   5.445391  10.890783
309  1  12.252131   9.529435  14.974827
310  1  13.613479   8.168087  10.890783
311  1  12.252131   6.806739  12.252131
312  1  13.613479   5.445391  13.613479
313  1  14.974827   9.529435  17.697522
314  1  10.890783   8.168087  19.058870
315  1  14.974827   6.806739  20.420218
316  1  10.890783   5.445391  16.336174
317  1  12.252131   9.529435  20.420218
318  1  13.613479   8.168087  16.336174
319  1  12.252131   6.806739  17.697522
320  1  13.613479   5.445391  19.058870
321  1  14.974827  14.974827   1.361348
322  1  10.890783  13.613479   2.722696
323  1  14.974827  12.252131   4.084044
324  1  10.890783  10.890783   0.000000
325  1  12.252131  14.974827   4.084044
326  1  13.613479  13.613479   0.000000
327  1  12.252131  12.252131   1.361348
328  1  13.613479  10.890783   2.722696
329  1  14.974827  14.974827   6.806739
330  1  10.890783  13.613479   8.168087
331  1  14.974827  12.252131   9.529435
332  1  10.890783  10.890783   5.445391
333  1  12.252131  14.974827   9.529435
334  1  13.613479  13.613479   5.445391
335  1  12.252131  12.252131   6.806739
336  1  13.613479  10.890783   8.168087
337  1  14.974827  14.974827  12.252131
338  1  10.890783  13.613479  13.613479
339  1  14.974827  12.252131  14.974827
340  1  10.890783  10.890783  10.890783
341  1  12.252131  14.974827  14.974827
342  1  13.613479  13.613479  10.890783
343  1  12.252131  12.252131  12.252131
344  1  13.613479  10.890783  13.613479
345  1  14.974827  14.974827  17.697522
346  1  10.890783  13.613479  19.058870
347  1  14.974827  12.252131  20.420218
348  1  10.890783  10.890783  16.336174
349  1  12.252131  14.974827  20.420218
350  1  13.613479  13.613479  16.336174
351  1  12.252131  12.252131  17.697522
352  1  13.613479  10.890783  19.058870
353  1  14.974827  20.420218   1.361348
354  1  10.890783  19.058870   2.722696
355  1  14.974827  17.697522   4.084044
356  1  10.890783  16.336174   0.000000
357  1  12.252131  20.420218   4.084044
358  1  13.613479  19.058870   0.000000
359  1  12.252131  17.697522   1.361348
360  1  13.613479  16.336174   2.722696
361  1  14.974827  20.420218   6.806739
362  1  10.890783  19.058870   8.168087
363  1  14.974827  17.697522   9.529435
364  1  10.890783  16.336174   5.445391
365  1  12.252131  20.420218   9.529435
366  1  13.613479  19.058870   5.445391
367  1  12.252131  17.697522   6.806739
368  1  13.613479  16.336174   8.168087
369  1  14.974827  20.420218  12.252131
370  1  10.890783  19.058870  13.613479
371  1  14.974827  17.697522  14.974827
372  1  10.890783  16.336174  10.890783
373  1  12.252131  20.420218  14.974827
374  1  13.613479  19.058870  10.890783
375  1  12.252131  17.697522  12.252131
376  1  13.613479  16.336174  13.613479
377  1  14.974827  20.420218  17.697522
378  1  10.890783  19.058870  19.058870
379  1  14.974827  17.697522  20.420218
380  1  10.890783  16.336174  16.336174
381  1  12.252131  20.420218  20.420218
382  1  13.613479  19.058870  16.336174
383  1  12.252131  17.697522  17.697522
384  1  13.613479  16.336174  19.058870
385  1  20.420218   4.084044   1.361348
386  1  16.336174   2.722696   2.722696
387  1  20.420218   1.361348   4.084044
388  1  16.336174   0.000000   0.000000
389  1  17.697522   4.084044   4.084044
390  1  19.058870   2.722696   0.000000
391  1  17.697522   1.361348   1.361348
392  1  19.058870   0.000000   2.722696
393  1  20.420218   4.084044   6.806739
394  1  16.336174   2.722696   8.168087
395  1  20.420218   1.361348   9.529435
396  1  16.336174   0.000000   5.445391
397  1  17.697522   4.084044   9.529435
398  1  19.058870   2.722696   5.445391
399  1  17.697522   1.361348   6.806739
400  1  19.058870   0.000000   8.168087
401  1  20.420218   4.084044  12.252131
402  1  16.336174   2.722696  13.613479
403  1  20.420218   1.361348  14.974827
404  1  16.336174   0.000000  10.890783
405  1  17.697522   4.084044  14.974827
406  1  19.058870   2.722696  10.890783
407  1  17.697522   1.361348  12.252131
408  1  19.058870   0.000000  13.613479
409  1  20.420218   4.084044  17.697522
410  1  16.336174   2.722696  19.058870
411  1  20.420218   1.361348  20.420218
412  1  16.336174   0.000000  16.336174
413  1  17.697522   4.084044  20.420218
414  1  19.058870   2.722696  16.336174
415  1  17.697522   1.361348  17.697522
416  1  19.058870   0.000000  19.058870
417  1  20.420218   9.529435   1.361348
418  1  16.336174   8.168087   2.722696
419  1  20.420218   6.806739   4.084044
420  1  16.336174   5.445391   0.000000
421  1  17.697522   9.529435   4.084044
422  1  19.058870   8.168087   0.000000
423  1  17.697522   6.806739   1.361348
424  1  19.058870   5.445391   2.722696
425  1  20.420218   9.529435   6.806739
426  1  16.336174   8.168087   8.168087
427  1  20.420218   6.806739   9.529435
428  1  16.336174   5.445391   5.445391
429  1  17.697522   9.529435   9.529435
430  1  19.058870   8.168087   5.445391
431  1  17.697522   6.806739   6.806739
432  1  19.058870   5.445391   8.168087
433  1  20.420218   9.529435  12.252131
434  1  16.336174   8.168087  13.613479
435  1  20.420218   6.806739  14.974827
436  1  16.336174   5.445391  10.890783
437  1  17.697522   9.529435  14.974827
438  1  19.058870   8.168087  10.890783
439  1  17.697522   6.806739  12.252131
440  1  19.058870   5.445391  13.613479
441  1  20.420218   9.529435  17.697522
442  1  16.336174   8.168087  19.058870
443  1  20.420218   6.806739  20.420218
444  1  16.336174   5.445391  16.336174
445  1  17.697522   9.529435  20.420218
446  1  19.058870   8.168087  16.336174
447  1  17.697522   6.806739  17.697522
448  1  19.058870   5.445391  19.058870
449  1  20.420218  14.974827   1.361348
450  1  16.336174  13.613479   2.722696
451  1  20.420218  12.252131   4.084044
452  1  16.336174  10.890783   0.000000
453  1  17.697522  14.974827   4.084044
454  1  19.058870  13.613479   0.000000
455  1  17.697522  12.252131   1.361348
456  1  19.058870  10.890783   2.722696
457  1  20.420218  14.974827   6.806739
458  1  16.336174  13.613479   8.168087
459  1  20.420218  12.252131   9.529435
460  1  16.336174  10.890783   5.445391
461  1  17.697522  14.974827   9.529435
462  1  19.058870  13.613479   5.445391
463  1  17.697522  12.252131   6.806739
464  1  19.058870  10.890783   8.168087
465  1  20.420218  14.974827  12.252131
466  1  16.336174  13.613479  13.613479
467  1  20.420218  12.252131  14.974827
468  1  16.336174  10.890783  10.890783
469  1  17.697522  14.974827  14.974827
470  1  19.058870  13.613479  10.890783
471  1  17.697522  12.252131  12.252131
472  1  19.058870  10.890783  13.613479
473  1  20.420218  14.974827  17.697522
474  1  16.336174  13.613479  19.058870
475  1  20.420218  12.252131  20.420218
476  1  16.336174  10.890783  16.336174
477  1  17.697522  14.974827  20.420218
478  1  19.058870  13.613479  16.336174
479  1  17.697522  12.252131  17.697522
480  1  19.058870  10.890783  19.058870
481  1  20.420218  20.420218   1.361348
482  1  16.336174  19.058870   2.722696
483  1  20.420218  17.697522   4.084044
484  1  16.336174  16.336174   0.000000
485  1  17.697522  20.420218   4.084044
486  1  19.058870  19.058870   0.000000
487  1  17.697522  17.697522   1.361348
488  1  19.058870  16.336174   2.722696
489  1  20.420218  20.420218   6.806739
490  1  16.336174  19.058870   8.168087
491  1  20.420218  17.697522   9.529435
492  1  16.336174  16.336174   5.445391
493  1  17.697522  20.420218   9.529435
494  1  19.058870  19.058870   5.445391
495  1  17.697522  17.697522   6.806739
496  1  19.058870  16.336174   8.168087
497  1  20.420218  20.420218  12.252131
498  1  16.336174  19.058870  13.613479
499  1  20.420218  17.697522  14.974827
500  1  16.336174  16.336174  10.890783
501  1  17.697522  20.420218  14.974827
502  1  19.058870  19.058870  10.890783
503  1  17.697522  17.697522  12.252131
504  1  19.058870  16.336174  13.613479
505  1  20.420218  20.420218  17.697522
506  1  16.336174  19.058870  19.058870
507  1  20.420218  17.697522  20.420218
508  1  16.336174  16.336174  16.336174
509  1  17.697522  20.420218  20.420218
510  1  19.058870  19.058870  16.336174
511  1  17.697522  17.697522  17.697522
512  1  19.058870  16.336174  19.058870
513  1   2.722696   2.722696   2.722696
514  1   8.168087   2.722696   2.722696
515  1   2.722696   8.168087   2.722696
516  1   2.722696   2.722696   8.168087
517  1   8.168087   8.168087   2.722696
518  1   2.722696   8.168087   8.168087
519  1   8.168087   2.722696   8.168087
520  1   8.168087   8.168087   8.168087
521  1  13.613479   2.722696   2.722696
522  1   2.722696  13.613479   2.722696

