LAMMPS data file via write_data, version 10 Sep 2025, timestep = 10000000, units = metal

522 atoms
1 atom types

0 21.754625 xlo xhi
0 21.754625 ylo yhi
0 21.754625 zlo zhi

Masses

1 28.085

Atoms # atomic

7 1 1.2643934226010407 1.363067074973994 1.3911295039167066 0 0 0
513 1 21.74468011141311 2.6983517546218754 2.9213300519885146 -1 0 0
130 1 5.564009469755218 2.6064656487127946 2.6469304338448314 0 0 0
135 1 6.9532031567299635 1.1626976954479524 1.3765100571258362 0 0 0
258 1 10.758597389755135 2.5330531532223937 2.6685917779433606 0 0 0
263 1 12.28127679694642 1.1922100157723599 1.2537172239808203 0 0 0
262 1 13.41966842914134 2.7747050638175037 0.002608584305907158 0 0 0
386 1 16.18456864137259 2.430885597920191 2.7659831270700916 0 0 0
391 1 17.68291757198982 1.167916299983098 1.3440190778942593 0 0 0
40 1 2.539715411181612 5.324353239293608 2.7968374207947835 0 0 0
1 1 4.080131857211073 3.986539149206677 1.3708502997537675 0 0 0
164 1 5.494840515031231 5.061736463331942 21.64955676076714 0 0 -1
142 1 8.278001334562738 5.138527418234906 2.7780169218782227 0 0 0
129 1 9.472155098190798 3.950923119117136 1.1911506155727785 0 0 0
257 1 14.902690585981823 3.837491706368352 1.360713261733093 0 0 0
296 1 13.508243223087833 5.2839090656841226 2.8811726744357085 0 0 0
420 1 16.1657676156319 5.193725618655357 21.74720165031151 0 0 -1
385 1 20.43884538882107 3.985826748764263 1.490335797526768 0 0 0
424 1 18.9825896801199 5.414848401197497 2.727358594478523 0 0 0
39 1 1.2357423285949642 6.801160033613432 1.3363511571182005 0 0 0
38 1 2.6151874162265747 7.829219576917204 21.60511837135321 0 0 -1
162 1 4.773565457144375 7.437439140345889 2.1822395734874287 0 0 0
133 1 6.8476738838965066 6.315851603518481 1.2420659251290669 0 0 0
172 1 7.364404982901003 8.24437239109964 3.0009763368954876 0 0 0
300 1 11.315402172485605 7.78697902430244 2.6546476461510733 0 0 0
295 1 12.504834776173988 6.455904963018051 1.2063122674400122 0 0 0
517 1 9.908857007193479 9.077355998618936 1.1940136434289088 0 0 0
294 1 13.685202380568192 7.903245003314742 21.63094500800323 0 0 -1
423 1 17.612807368137464 6.74915039784267 1.3366088639643632 0 0 0
418 1 16.16718570925624 8.043523574139687 2.65737622256663 0 0 0
34 1 21.55207943537138 7.995332820158322 2.7642847731901354 -1 0 0
417 1 20.208577720412112 9.290631077889573 1.3556393154261195 0 0 0
72 1 2.362819121105191 10.527962319488804 2.301098702723666 0 0 0
71 1 1.1026331875895024 12.138155366575322 0.9905812848007519 0 0 0
515 1 3.848801772220704 9.09709532237345 1.0156346195940236 0 0 0
200 1 5.95946532965445 11.434289142782179 3.3127711891915865 0 0 0
166 1 6.915337537248084 10.203514200065129 1.5504215046589451 0 0 0
290 1 9.89065705392865 11.322345940879442 2.4431844509322183 0 0 0
327 1 12.55917895075068 12.186729189661976 1.287927661970642 0 0 0
289 1 14.894455563504398 9.541398034824093 1.3269165302627954 0 0 0
328 1 13.694198110029252 10.824552160248116 2.959518730497419 0 0 0
455 1 17.574615882766384 12.305191202225183 1.4082016726913409 0 0 0
456 1 18.9386840059452 10.794918965092275 2.661106536885607 0 0 0
65 1 3.9675253780371667 14.976579561037509 0.9931841549355193 0 0 0
194 1 4.769756526307909 13.374778898701093 2.624279684121551 0 0 0
199 1 5.92700428281784 12.952844711008419 0.30647255853112687 0 0 0
161 1 8.119971269076764 12.793109762611426 1.6539487202304843 0 0 0
322 1 11.488869424691856 13.94047179389139 2.5310043766305723 0 0 0
193 1 10.298112237007539 15.239749517242242 1.010334194404283 0 0 0
321 1 14.84791328359272 14.830824427005583 1.4262139599938635 0 0 0
450 1 16.11108659617056 13.399875675503266 2.916001804018617 0 0 0
66 1 21.73819289252547 13.539647538409769 2.5439296342311097 -1 0 0
449 1 20.36643452165154 14.906366127946042 1.21206974490057 0 0 0
454 1 18.894678007268904 13.632512658354038 21.684669274329664 0 0 -1
103 1 1.2010554390771124 17.667549966249812 1.345816454088001 0 0 0
104 1 2.7137401321192254 16.419156317819287 2.679602010925719 0 0 0
231 1 6.859834147707096 17.73963687002498 1.2361770974649844 0 0 0
232 1 8.672087820013713 16.574075068314617 2.201845322814587 0 0 0
359 1 12.44918554332402 17.531830730079626 1.55309649903496 0 0 0
360 1 13.639626781899217 16.138000535539142 2.983553423480887 0 0 0
487 1 17.70916758570231 17.715827949264785 1.4337095143319436 0 0 0
488 1 19.035416515101698 16.273217555093602 2.722005670093674 0 0 0
8 1 2.6017231039756057 0.03734437935727897 2.7626386909565603 0 0 0
102 1 2.7661418374365283 18.965175108180965 0.007133680004631113 0 0 0
226 1 5.5453127789588486 18.96118633132323 2.7481915449334977 0 0 0
97 1 4.132342529325861 20.376460424860134 1.4260106298110182 0 0 0
132 1 5.411491864428756 21.679172219613505 0.03526670797787135 0 -1 0
136 1 8.305275695273334 21.63364054258464 2.6978131712987814 0 -1 0
225 1 9.552322952743005 20.265342618424196 1.314875450505036 0 0 0
354 1 10.952341944680065 19.022516489187904 2.670614681146335 0 0 0
264 1 13.521423295866706 0.016660041777672774 2.837290702845636 0 0 0
353 1 14.956399935804527 20.48180683880545 1.3494761479378863 0 0 0
482 1 16.3043081300264 19.09774243243241 2.79597497732455 0 0 0
388 1 16.296060370119278 21.667115346456097 21.700094720850775 0 -1 -1
392 1 19.018530232038128 0.017566247187940018 2.73505053127284 0 0 0
98 1 0.043935951511844706 19.04493452311223 2.635865003993496 0 0 0
481 1 20.314765926923798 20.477528777800817 1.3718101697856588 0 0 0
15 1 2.7017116440288413 2.5744101074779717 5.514638213580161 0 0 0
3 1 4.171341879691525 1.4573010687240593 4.080931661360961 0 0 0
519 1 8.116187005280702 2.4939784666531213 5.551823386276039 0 0 0
131 1 9.422367583708382 1.3335128038796575 4.106531037919817 0 0 0
521 1 14.834628383008905 1.2966883268001872 4.133428741095455 0 0 0
259 1 13.662562093881503 2.601068410617631 5.574750147770285 0 0 0
398 1 19.125781822047394 2.5858877612370907 5.482640346475288 0 0 0
387 1 20.427859697384722 1.3396171512202482 4.124579849400056 0 0 0
2 1 1.2831283560637525 4.033936698970835 4.128438812702176 0 0 0
5 1 5.436264927386727 5.013760151418611 5.453412103177197 0 0 0
14 1 6.87658409053941 3.7914612455847965 3.9668883920620526 0 0 0
270 1 10.850097299073822 5.191008102248566 5.535237099830575 0 0 0
261 1 12.115668938225763 3.8589349068168577 4.085925208552422 0 0 0
389 1 17.729010098196095 3.9730447969628235 4.214707956746025 0 0 0
428 1 16.374492429131553 5.3005945967820765 5.644451742914651 0 0 0
44 1 21.661837657241147 5.2821299790815175 5.494536078536542 -1 0 0
46 1 2.578876881338607 7.9274409669231956 5.509587073704792 0 0 0
35 1 3.959513761417863 6.421652266527215 4.342880900804302 0 0 0
175 1 6.0787994714522995 8.084523010891148 5.037094760462976 0 0 0
520 1 8.554758428759117 7.325088141782567 5.932476563348816 0 0 0
514 1 9.612077575686266 6.53168874747738 3.865054123496948 0 0 0
291 1 15.032560853938973 6.5846266447569795 4.227975002343633 0 0 0
302 1 13.627042034740313 8.008176453806753 5.5326191136900595 0 0 0
430 1 19.069194723901962 8.217923945086072 5.381610905823076 0 0 0
419 1 20.344923855991375 6.693973154128207 4.231363957627202 0 0 0
37 1 1.2445306088360188 9.357538834092448 4.078738865255907 0 0 0
165 1 3.764384567261564 11.324872810938308 5.527364680862156 0 0 0
33 1 4.396801518718219 9.777385392390496 3.9316913248730785 0 0 0
163 1 7.751431923235299 11.334886611390482 4.800944638167668 0 0 0
168 1 9.17322125611355 9.665118028488454 3.8490832774627615 0 0 0
332 1 11.128681913610345 10.500301374730086 5.757931509674149 0 0 0
293 1 12.314386666525683 9.391193878438902 4.095365439152096 0 0 0
323 1 14.842133256981057 12.122636279671147 4.4680914316445905 0 0 0
421 1 17.505921734224117 9.464867551355471 4.062168228239577 0 0 0
460 1 16.350978822724322 10.694619549205983 5.680026423085077 0 0 0
76 1 21.640130552209403 10.680241421123567 5.422216870840472 -1 0 0
451 1 20.458984497481445 12.028845047827417 3.897109359515628 0 0 0
522 1 1.0964837941688799 15.132727091634829 3.8327001593159578 0 0 0
67 1 2.792924738828403 12.554318306187612 3.4727069829446395 0 0 0
69 1 2.180559920919527 13.867909350444139 5.705948331941944 0 0 0
78 1 5.833988325185791 14.62731407862363 4.316174145388016 0 0 0
197 1 7.9096489499439455 14.519262646021632 3.184397824828438 0 0 0
206 1 8.51998394818383 13.61386699055196 5.3095593770139455 0 0 0
195 1 10.536415991504407 12.690400162682266 4.591602109420824 0 0 0
325 1 12.28464361642065 15.074246888004284 4.579096796885843 0 0 0
334 1 13.518037108959353 13.579019346362482 5.641164807840678 0 0 0
453 1 17.576926711918592 14.937731330531985 4.047693710409942 0 0 0
462 1 19.012417225372868 13.460617199110485 5.407993273853551 0 0 0
99 1 4.005118135089276 17.925715403292152 4.1665168518000835 0 0 0
236 1 5.288873225912494 16.545702620392177 5.634148427684051 0 0 0
227 1 9.6809187143519 17.67723606166895 4.196852817994607 0 0 0
364 1 10.75644009550152 16.315978560801458 5.811313787741616 0 0 0
355 1 14.890298392177879 17.64226369266486 4.2022748195436455 0 0 0
492 1 16.40055900633721 16.22586121209272 5.433884053069468 0 0 0
108 1 21.579407985433658 16.333167237019765 5.509357528253495 -1 0 0
483 1 20.383962997029997 17.684078304957303 4.013508066549209 0 0 0
110 1 2.5742323275518144 19.101254178437173 5.4291359631237235 0 0 0
101 1 1.1989831684802499 20.366829880095153 4.041907559454584 0 0 0
12 1 21.735037282952597 21.724981454445537 5.452709317907375 -1 -1 0
140 1 5.4668090353045296 21.6958041064683 5.346268575207999 0 -1 0
238 1 8.280598805090671 19.082966928095818 5.383044625774192 0 0 0
229 1 6.825171138453981 20.377624837101738 4.001437076984171 0 0 0
268 1 10.919689472541256 21.738163580474474 5.468261681509179 0 -1 0
357 1 12.284605922440345 20.342043699213185 4.1079985630399625 0 0 0
366 1 13.615662288534189 19.042587449484284 5.49336599902094 0 0 0
396 1 16.3104346047724 21.663841390194218 5.322383758743764 0 -1 0
485 1 17.557369846654144 20.397613948089408 3.970833364509164 0 0 0
494 1 18.9287161702472 18.975167270815323 5.307741214985595 0 0 0
516 1 1.1890878253498502 1.2693729061650083 6.859425345651803 0 0 0
138 1 5.420221139133068 2.523936228921855 8.19376010686732 0 0 0
143 1 6.753269484549369 1.1721869979339434 6.781894517791584 0 0 0
144 1 8.202347204136839 0.07847285886537847 8.173578394993918 0 0 0
266 1 11.053586382580397 2.621609726079284 8.338776332290983 0 0 0
271 1 12.208139602715915 1.2124044927850905 6.990318724684916 0 0 0
272 1 13.563046883144983 21.676625829144058 8.236199656886168 0 -1 0
394 1 16.416069838701613 2.5545926547179265 8.204814283760303 0 0 0
399 1 17.6703452164524 1.196088064296377 6.783622183659454 0 0 0
10 1 21.62484678589767 2.5917921359637077 8.231272596876948 -1 0 0
48 1 2.6759862145705027 5.3422462281432095 8.374650034014746 0 0 0
9 1 3.972687457952094 3.940992395949951 7.06424481719611 0 0 0
176 1 8.16433093434873 5.02805795172474 8.287413896954485 0 0 0
137 1 9.58814722890467 3.8465011622273773 6.817500575798227 0 0 0
265 1 15.075275784718919 3.774928806443268 6.834971468142116 0 0 0
304 1 13.7321930759351 5.197493982836848 8.280225119454526 0 0 0
393 1 20.454140381341066 3.865235256200762 6.767384600621923 0 0 0
432 1 19.0911372103415 5.183752105287909 8.076147686126353 0 0 0
47 1 1.3361988762759565 6.522677923525653 6.966663292304811 0 0 0
518 1 5.483797440548235 7.99236978323219 8.281658953641994 0 0 0
170 1 6.659407160646607 6.296200811637092 7.130964342325641 0 0 0
298 1 10.922490021200868 7.684712887597175 8.35452181381709 0 0 0
303 1 12.279799368182513 6.4993508555169575 6.824689055394124 0 0 0
426 1 16.37223035465303 7.858233072846384 8.298339134210211 0 0 0
431 1 17.900069656360998 6.720188028869197 6.775388934512353 0 0 0
42 1 0.00822859843192186 7.971151539102479 8.284217114438919 0 0 0
80 1 2.5424266198861827 10.798226690563121 8.258700364212212 0 0 0
79 1 1.1918007468640377 11.989389256871455 6.846893797554135 0 0 0
41 1 3.991803476122927 9.240576583372926 7.061448297145406 0 0 0
174 1 6.583029458275565 10.136685541710351 6.41075206689435 0 0 0
208 1 8.250946051015806 10.525080052147066 8.321935586156124 0 0 0
169 1 9.735281488495817 9.056730431232392 6.991903526838637 0 0 0
297 1 14.908849028285182 9.315700850302486 7.013970861985007 0 0 0
335 1 12.330206856264303 12.198910176217613 7.119800880811207 0 0 0
336 1 13.630259830701187 10.624441727730321 8.446296457486232 0 0 0
463 1 17.892130542364562 12.008696843053423 6.791470793719583 0 0 0
425 1 20.263206444441302 9.486986517920931 6.897265526654896 0 0 0
464 1 18.90718299198223 10.636497826267346 8.55238287297202 0 0 0
204 1 5.360231565617595 12.712215924919265 6.234643604535038 0 0 0
202 1 4.981450868279636 14.010713347429647 8.460661954124047 0 0 0
73 1 3.784570908241039 15.280784094478621 6.837586592585378 0 0 0
207 1 7.617563698056302 12.94467576839548 7.660636471882998 0 0 0
201 1 9.625052810262144 14.910472606435638 7.182387729546811 0 0 0
330 1 11.024120358082838 13.571629829992967 8.456573198504639 0 0 0
329 1 15.066842658318482 14.865978880031662 6.846633626140955 0 0 0
458 1 16.268583388257156 13.288823067195763 8.142932812201343 0 0 0
74 1 0.017223658571332123 13.471202624434877 8.26886717994139 0 0 0
457 1 20.38245276171592 14.834334141402012 6.864314722886853 0 0 0
111 1 1.2543419553646165 17.688772676363048 6.738838260613109 0 0 0
112 1 2.525366054340013 16.439974317610513 8.251824915624033 0 0 0
239 1 6.882121935615356 17.850318454521897 6.950347886128536 0 0 0
240 1 8.154793187049089 16.453067062168746 8.318519791118554 0 0 0
367 1 12.341635552737836 17.64078548340902 6.988137614510365 0 0 0
368 1 13.739431102912212 16.258464871891686 8.310604969616103 0 0 0
495 1 17.773845195131948 17.551829372296464 6.783181047641898 0 0 0
496 1 18.917230504617834 16.150857915341067 8.161787423750193 0 0 0
16 1 2.570161490852151 21.56735007881551 8.083706411140259 0 -1 0
234 1 5.334947313012203 19.211198548594023 8.166176233174248 0 0 0
105 1 4.00540372450756 20.34905354754914 6.732186704711938 0 0 0
233 1 9.478145976754254 20.39867172224178 6.933723372845236 0 0 0
362 1 10.863668057889386 19.098180987390943 8.135058295521766 0 0 0
361 1 14.995306599249965 20.471806492244937 6.92206026983138 0 0 0
490 1 16.31882788711169 18.92780897860523 8.116649152010124 0 0 0
400 1 18.986174612475335 21.618741967807587 8.058382188358946 0 -1 0
106 1 21.5731407498824 18.89438878322797 8.08943850927947 -1 0 0
489 1 20.3074500393222 20.248362882728852 6.658928448712135 0 0 0
22 1 2.816284167629931 2.5294903414406975 10.964485438305816 0 0 0
23 1 1.437648092588873 1.2588658011895595 12.371985851922963 0 0 0
11 1 4.015354209726212 1.062986912403443 9.447516863431568 0 0 0
150 1 8.225000038787 2.574438840722515 11.060672846903472 0 0 0
151 1 6.921708850276312 1.155903862684828 12.244938865552207 0 0 0
139 1 9.56937439893767 1.4049490795412511 9.602252804844257 0 0 0
279 1 12.047912989585662 1.1284171225082575 12.277819815483847 0 0 0
267 1 14.960492533873447 1.207871400906016 9.550017389554991 0 0 0
278 1 13.82971788743894 2.5716428653187218 10.995038759811186 0 0 0
407 1 17.800236224283736 1.2857751190123916 12.22356466764061 0 0 0
395 1 20.422106616897704 1.1533289253249444 9.48052477552964 0 0 0
406 1 19.153139390361645 2.606841293040128 10.706421812336867 0 0 0
13 1 1.227115293651254 3.8440052534561353 9.595077735106903 0 0 0
52 1 21.737883832552754 5.347923955626002 10.907091797101705 -1 0 0
180 1 5.457280506780627 5.226182964434575 11.03186824454185 0 0 0
17 1 3.9993195357846743 3.970342525504532 12.224507735177642 0 0 0
141 1 6.662765453054528 3.8567242479052584 9.73217555683603 0 0 0
145 1 9.501418179118252 3.736890067839219 12.422086150106631 0 0 0
308 1 10.899352956402712 5.172896342805726 11.06419304015626 0 0 0
269 1 12.429712216498471 3.881774811301106 9.717981972131703 0 0 0
273 1 14.996658746689366 3.7479077747912464 12.453139777523823 0 0 0
397 1 17.793199641255846 3.9203528726491275 9.530990717816547 0 0 0
436 1 16.358196410393145 5.139321305703057 10.99308899614379 0 0 0
401 1 20.532910102530604 3.847062570312568 12.284029407877886 0 0 0
54 1 2.793948168970556 8.094816230837786 11.093682594286907 0 0 0
55 1 1.3779767724688388 6.822120588937066 12.28050935964265 0 0 0
43 1 4.155298907113952 6.67641172916081 9.741080212577598 0 0 0
182 1 8.041064045472258 7.991619858191216 10.89062791762741 0 0 0
171 1 9.532725507845687 6.381910945777574 9.817486204996952 0 0 0
311 1 12.25431716692189 6.626793015550972 12.28269995161579 0 0 0
299 1 14.960497654711405 6.474896725311538 9.73356841736089 0 0 0
310 1 13.719751839907632 7.951572237432556 11.068999283980263 0 0 0
439 1 17.771680241850866 6.3964309118264016 12.236804973414381 0 0 0
429 1 17.502121043785866 9.277501631446057 9.800322829086651 0 0 0
427 1 20.320468687825727 6.69424876501602 9.613027334917044 0 0 0
438 1 18.949307724566562 7.924466429783225 11.0959054683816 0 0 0
45 1 1.3320681329201725 9.37984217553489 9.567699679760175 0 0 0
87 1 1.1233786012025424 12.157952232218628 12.263761095640403 0 0 0
212 1 5.401206039978991 10.934708904550599 10.987846061645842 0 0 0
75 1 3.977929060360649 12.176210926119674 9.669783420020025 0 0 0
49 1 4.012253278620033 9.59287164738767 12.383038505626708 0 0 0
173 1 6.7281637701421095 9.496371874374278 9.691696821282658 0 0 0
215 1 6.754983605260564 12.28210766243251 12.327224231066324 0 0 0
177 1 9.562122926760921 9.264638558554216 12.114413725873248 0 0 0
340 1 11.010726986418396 10.735379635955052 10.96947130696225 0 0 0
203 1 9.581928956770119 12.071424811759657 9.688946959917752 0 0 0
301 1 12.177812872515094 9.19406570849624 9.707238513254559 0 0 0
305 1 15.107724876450341 9.29743552114982 12.510421969307206 0 0 0
331 1 15.020094056810033 12.132955302722742 9.811728672007776 0 0 0
468 1 16.310959152133996 10.782955842335928 11.057245559912568 0 0 0
471 1 17.837415632935844 12.087926881704258 12.166636051323032 0 0 0
433 1 20.213805392796317 9.314279665386362 12.39692398117052 0 0 0
84 1 21.697951010193467 10.66262781633968 10.982991249522053 -1 0 0
459 1 20.490353582390235 12.057462944233851 9.48246531656678 0 0 0
77 1 1.3513750185060327 14.882200696042341 9.52572833647959 0 0 0
86 1 2.5386186990308537 13.501294899405876 10.906274611312744 0 0 0
81 1 4.0270101934301445 14.795167667607746 12.325600728932663 0 0 0
205 1 6.903942303512791 15.092805246822635 9.546507681863075 0 0 0
214 1 8.20695422447422 13.55851679150169 10.92230116879031 0 0 0
209 1 9.489943480404742 14.993402905275907 12.331064355688005 0 0 0
333 1 12.313050829765492 14.933182665142253 9.730448423361205 0 0 0
342 1 13.714452082570707 13.524095517674466 11.062225626007079 0 0 0
461 1 17.446653276766863 14.749992589590741 9.53226401166172 0 0 0
470 1 19.064066132619917 13.585184878428043 10.790321739673338 0 0 0
465 1 20.209498926435458 14.94144967681498 12.229119635516227 0 0 0
119 1 1.2015628797804128 17.42668794289752 12.395766879371372 0 0 0
116 1 21.65087218450377 16.210902259936105 11.073961561012213 -1 0 0
107 1 4.030554238773524 17.75523842918291 9.479374462677054 0 0 0
244 1 5.400518790200501 16.29567274782708 10.950251269394018 0 0 0
247 1 6.822538303992669 17.6851184338712 12.262175172610638 0 0 0
235 1 9.788442441612082 17.69690132552233 9.598836032279385 0 0 0
372 1 10.957445993148534 16.39089288749312 10.991909903832866 0 0 0
375 1 12.350996641992902 17.591739983722956 12.309781064561204 0 0 0
363 1 15.06087139755709 17.577337321928376 9.629972190839437 0 0 0
500 1 16.22399484151167 16.15373739608497 10.87640107488391 0 0 0
503 1 17.5916685299686 17.628503921245006 12.073131571162529 0 0 0
491 1 20.41379088989995 17.44283198975108 9.508550552244497 0 0 0
20 1 0.059075238147905426 21.554865739017078 10.892627031117764 0 -1 0
109 1 1.299384516110507 20.153713128921837 9.544498593416709 0 0 0
118 1 2.6861978162664206 18.878405257430813 11.022965748937898 0 0 0
148 1 5.516913834673216 21.637293199943425 11.039763238188288 0 -1 0
113 1 4.03929913886338 20.312312298095243 12.40547118925686 0 0 0
237 1 6.818043293833231 20.466358667034623 9.422888555543596 0 0 0
246 1 8.138251529679698 18.945990044111127 10.829188720504007 0 0 0
241 1 9.561297557030272 20.184872750475837 12.384111366882149 0 0 0
276 1 10.823358776607444 21.596395210036462 10.81142085818308 0 -1 0
365 1 12.240632185445579 20.34587902106152 9.573096300363451 0 0 0
374 1 13.631248130565723 19.021118010095616 11.061293473918914 0 0 0
369 1 15.051117282654529 20.248494571756623 12.270632753280166 0 0 0
404 1 16.35609895378283 21.669151436240774 10.935354550251532 0 -1 0
493 1 17.597113325738615 20.45144353004703 9.38769123663008 0 0 0
502 1 19.034262361712425 19.08918218411966 10.712516275406324 0 0 0
497 1 20.339785602920486 20.295830465468313 12.181128880841648 0 0 0
19 1 4.006825863485634 1.2962150014302833 14.990358238437675 0 0 0
146 1 5.463009908345395 2.4809939502590135 13.496154256057883 0 0 0
147 1 9.575554706206988 1.0428723646119953 14.964417030752738 0 0 0
274 1 10.852548151382248 2.4504582581311154 13.770366029692694 0 0 0
275 1 14.969524915794993 1.1173578473621972 14.95844135138195 0 0 0
280 1 13.550033413375528 21.640354313477633 13.525969914890034 0 -1 0
402 1 16.41495233483036 2.459669291296729 13.709575935487422 0 0 0
18 1 0.05642832944139187 2.5543241748840932 13.776687207377392 0 0 0
403 1 20.423061135030427 1.1646761652813138 15.078374639211038 0 0 0
21 1 1.2861610364244676 3.948180462204585 15.036383050986005 0 0 0
56 1 2.5309972793281714 5.389611447142671 13.589815742598791 0 0 0
149 1 6.657592697420138 3.936935103717102 14.987516151503096 0 0 0
184 1 8.137692160100787 5.137483273318966 13.719042996769623 0 0 0
277 1 12.132743655403495 3.927627995132922 14.944044425871462 0 0 0
312 1 13.593977304980218 5.227263692899323 13.704575330017358 0 0 0
405 1 17.666313008056328 3.875862170894015 15.075324259208488 0 0 0
440 1 19.06843841819376 5.154653616331418 13.65956316461619 0 0 0
53 1 1.2294612530020692 9.322541560890807 15.002631748995736 0 0 0
51 1 3.9139566454081174 6.7294078547340535 14.875701194135438 0 0 0
178 1 5.397457110866748 8.015545639585001 13.616958745028976 0 0 0
183 1 6.7548285469887395 6.6973327293277745 12.37237138427527 0 0 0
179 1 9.517126412115555 6.697086491964251 14.922529592031546 0 0 0
181 1 6.899493010214532 9.437285464156647 14.878839820079206 0 0 0
306 1 10.837162290502404 8.12381029096167 13.526546079069664 0 0 0
307 1 14.930434810391876 6.699994272662396 14.887862684966192 0 0 0
434 1 16.496650970978774 7.822720583378164 13.677687581777809 0 0 0
50 1 21.689534704566228 8.11773273004297 13.486658401009738 -1 0 0
435 1 20.423152409827832 6.730900196334673 14.857434576517244 0 0 0
88 1 2.496566403872588 10.847603708778527 13.710419011532545 0 0 0
83 1 3.826133329443797 12.154715788176848 15.050617097803569 0 0 0
216 1 8.220863622031308 10.709209843650594 13.5357375717175 0 0 0
309 1 12.356340074683915 9.43911409210995 14.91712768741145 0 0 0
211 1 9.574870643090652 12.03933307256729 14.947362764840634 0 0 0
343 1 12.402056080456532 12.07549911363 12.262453006776926 0 0 0
344 1 13.746151280813727 10.838215172658876 13.818027016976663 0 0 0
339 1 15.003467589254631 12.324690815954444 14.961862086719403 0 0 0
437 1 17.433484437259892 9.300903150274756 15.048911593717731 0 0 0
472 1 18.866266663306483 10.613296015851896 13.765579371457966 0 0 0
467 1 20.368220026767386 12.113205438811313 15.0132764434643 0 0 0
85 1 1.315685244870977 14.884279338659598 15.043766676382644 0 0 0
210 1 5.3243058193352475 13.511030606441478 13.669375833556469 0 0 0
213 1 6.5808156464563945 14.846069499859192 14.9943368935454 0 0 0
338 1 10.872601209199525 13.48605980332169 13.490272021433427 0 0 0
341 1 12.173679059786709 14.838005774929016 15.077193075764846 0 0 0
337 1 15.071361273741676 14.88155825845324 12.371404064521032 0 0 0
466 1 16.481747645360677 13.526920259439846 13.668789279451522 0 0 0
469 1 17.679394823073217 14.934615811986399 14.94769594949266 0 0 0
82 1 21.640087391068487 13.586254769372959 13.609241622432926 -1 0 0
120 1 2.7345357208333776 16.143721596730934 13.743851358533819 0 0 0
115 1 4.0475297641406875 17.61781012934419 15.052418038174277 0 0 0
248 1 8.05288121214078 16.3592338099033 13.617491056393371 0 0 0
243 1 9.362284215546 17.651023608063184 14.88514592331996 0 0 0
371 1 15.09598249329793 17.524628641968306 14.927860377302064 0 0 0
376 1 13.552793125082312 16.14860778342634 13.615517773488934 0 0 0
504 1 18.937537621535927 16.30808464128316 13.497077607661407 0 0 0
499 1 20.26167888724101 17.58218490519272 14.806144154169758 0 0 0
24 1 2.6862910138999947 21.613563881888208 13.607084155542962 0 -1 0
117 1 1.3368244262961142 20.369457437082808 14.980996353134543 0 0 0
114 1 0.040111974839946246 18.991762268962123 13.66861999192492 0 0 0
242 1 5.342932023217108 18.963971249942283 13.680581121837829 0 0 0
152 1 8.192963705195648 21.57810887074702 13.629551175506347 0 -1 0
245 1 6.557561291128218 20.36087136320212 15.02584901278206 0 0 0
370 1 10.96025248550353 18.912116740466924 13.684801202041646 0 0 0
373 1 12.225859738487646 20.386419997557798 14.971974791138347 0 0 0
498 1 16.329335890524938 18.983959632520204 13.60713259950388 0 0 0
501 1 17.7392335519371 20.336077838978298 14.850308896052514 0 0 0
408 1 19.067931862768624 21.702073549578518 13.592264269994578 0 -1 0
30 1 2.6546846389450347 2.5387602561401286 16.346369211988993 0 0 0
31 1 1.3282864160341856 1.3796524112104056 17.795375263755897 0 0 0
158 1 8.025782713757343 2.530216353001535 16.312623664329553 0 0 0
159 1 6.792432251832105 1.2088278719651702 17.644666097163892 0 0 0
287 1 12.010477848590947 1.237303355839192 17.826455670724116 0 0 0
286 1 13.589121192497554 2.5254491018273653 16.25782636068049 0 0 0
415 1 17.655208364647972 1.224293959576317 17.714845262613014 0 0 0
414 1 19.033170370121653 2.486178315331143 16.314346661107805 0 0 0
25 1 3.9694106443821497 4.113618217201643 17.729658293023277 0 0 0
188 1 5.365250112684546 5.38148646477869 16.377354409146943 0 0 0
153 1 9.529772971186523 3.9616788196387898 17.612066161554917 0 0 0
316 1 10.901860969420852 5.529637891697811 16.290923893976647 0 0 0
281 1 14.839868446307085 3.9724724512813827 17.65774724764469 0 0 0
444 1 16.242972859409765 5.258877736746581 16.36048756444971 0 0 0
60 1 21.59488657404473 5.294116526160475 16.332078225637186 -1 0 0
409 1 20.335077941020224 4.046417741762377 17.696569676814093 0 0 0
62 1 2.553970716917328 7.966303183005389 16.2874609025905 0 0 0
63 1 1.254978277246291 6.490673248469171 17.753508806410796 0 0 0
190 1 8.20871978297849 8.136348338371956 16.318551429156646 0 0 0
191 1 6.832854292827521 6.6780494144075755 17.596366318102483 0 0 0
319 1 12.274285118306592 6.78458528549268 17.586041401118145 0 0 0
318 1 13.707506852337184 8.027051164012358 16.27432314631122 0 0 0
447 1 17.548665011604275 6.613528618714495 17.72390099447734 0 0 0
446 1 18.952394572430077 7.81259145631215 16.319812188046303 0 0 0
95 1 1.1796332138983578 11.993050077916793 17.627810680527727 0 0 0
57 1 3.868457552648012 9.423146234986499 17.476047345149066 0 0 0
220 1 5.307461550542726 10.69356190563114 16.09545394045052 0 0 0
223 1 6.654962124856121 12.130109403729898 17.498591411250636 0 0 0
185 1 9.680019415928012 9.44146059914121 17.61334119612638 0 0 0
348 1 10.871988093317894 10.684791922899759 16.196605085254845 0 0 0
351 1 12.192043086107475 12.255825852361493 17.643310963701836 0 0 0
313 1 14.887806713049267 9.65153184864218 17.721355446075 0 0 0
476 1 16.359657140579543 10.781464338604529 16.32278407226202 0 0 0
479 1 17.758745436425944 12.263784746491883 17.753539900406714 0 0 0
441 1 20.163668623246416 9.292595681758028 17.695503272406004 0 0 0
92 1 21.70372011559357 10.623821704765255 16.461359531241342 -1 0 0
94 1 2.542280737465847 13.437873211548961 16.54773023767253 0 0 0
89 1 3.9737125565410127 14.914379592189524 17.877797460122686 0 0 0
222 1 8.102806299164914 13.474645212279368 16.30150584164408 0 0 0
217 1 9.417234587102396 14.879558828355734 17.662055708931273 0 0 0
345 1 15.022721540686838 14.975358387243649 17.513969247759405 0 0 0
350 1 13.788362319436217 13.65017711054395 16.32271383302108 0 0 0
478 1 18.98263808717503 13.602544599447885 16.229108345690907 0 0 0
473 1 20.39957743169056 15.046455592160044 17.40751325692097 0 0 0
127 1 1.314491289955066 17.559355466352148 17.72151582794919 0 0 0
124 1 0.0110662961208206 16.385966209599577 16.122373498400307 0 0 0
252 1 5.296074849858085 16.211005825273993 16.41615983463613 0 0 0
255 1 6.786473675054944 17.503260952815804 17.567181380840243 0 0 0
380 1 10.671342220779078 16.27538340825662 16.338313746679088 0 0 0
383 1 12.12925628237239 17.728688086750726 17.451166045561532 0 0 0
508 1 16.43137874796189 16.363401667404375 16.411730691353227 0 0 0
511 1 17.66217221628661 17.825827821092314 17.6121724156381 0 0 0
126 1 2.6791842659694107 18.975318102713988 16.39820969445643 0 0 0
156 1 5.15574205848671 21.65866808208303 16.441212345283734 0 -1 0
121 1 4.120086912223484 20.45087353869454 17.8068265253279 0 0 0
254 1 8.03610526454243 18.89556686543755 16.32384104277439 0 0 0
249 1 9.406427204764025 20.17038486344788 17.69867618371888 0 0 0
284 1 10.775449561557222 21.51089809480979 16.43544908272794 0 -1 0
382 1 13.664281687874016 18.924147546602747 16.157658219017414 0 0 0
377 1 14.96084603457452 20.383354629743526 17.548892706091337 0 0 0
412 1 16.343956994305046 21.599779052511458 16.23970591808145 0 -1 0
28 1 0.05470322911806491 21.579207222293753 16.45795388361086 0 -1 0
510 1 19.068554534708163 19.067867946040554 16.211862143054823 0 0 0
505 1 20.306712323952127 20.228391855153948 17.799119968777376 0 0 0