LAMMPS (10 Sep 2025)
OMP_NUM_THREADS environment is not set. Defaulting to 1 thread.
  using 1 OpenMP thread(s) per MPI task
Loaded 1 plugins from C:\Users\lmike\AppData\Local\LAMMPS 64-bit 10Sep2025 with GUI\plugins
# LAMMPS input generated from LammpsInputFile with pymatgen v2025.10.7

# STYLES
units metal
atom_style atomic

# SET UP CALCULATION
read_data starting_config.dat
Reading data file ...
  orthogonal box = (0 0 0) to (21.754625 21.754625 21.754625)
  1 by 1 by 1 MPI processor grid
  reading atoms ...
  522 atoms
  read_data CPU = 0.002 seconds
pair_style sw
pair_coeff * * Si.sw Si
Reading sw potential file Si.sw with DATE: 2007-06-11
velocity all create 700 7093567

# CALCULATION PARAMETERS
fix f1 all nvt temp 700.0 700.0 $(100.0*dt)
fix f1 all nvt temp 700.0 700.0 0.10000000000000000555
thermo 100000
thermo_style custom step temp press spcpu cpuremain

# RUN CALC AND WRITE OUTPUTS
dump d1 all custom 100 state_dump id type x y z vx vy vz
run 10000000
Neighbor list info ...
  update: every = 1 steps, delay = 0 steps, check = yes
  max neighbors/atom: 2000, page size: 100000
  master list distance cutoff = 5.77118
  ghost atom cutoff = 5.77118
  binsize = 2.88559, bins = 8 8 8
  1 neighbor lists, perpetual/occasional/extra = 1 0 0
  (1) pair sw, perpetual
      attributes: full, newton on
      pair build: full/bin/atomonly
      stencil: full/bin/3d
      bin: standard
Per MPI rank memory allocation (min/avg/max) = 3.121 | 3.121 | 3.121 Mbytes
   Step          Temp          Press          S/CPU         CPULeft    
         0   700            87560.825      0              0            
    100000   715.12554      21367.904      480.77509      20591.749    
    200000   757.54         22469.086      420.38613      21847.827    
    300000   685.24335      21456.617      595.2747       19848.259    
    400000   724.28653      19094.281      465.26549      19891.073    
    500000   724.72787      20995.159      460.25622      19875.235    
    600000   701.78034      21795.493      456.29684      19821.789    
    700000   673.73262      18517.351      471.50975      19627.056    
    800000   660.89837      20162.01       468.64515      19442.893    
    900000   695.14204      19805.804      457.3586       19305.48     
   1000000   693.95524      22100.435      467.29446      19109.979    
   1100000   703.41776      23619.371      466.58969      18913.73     
   1200000   722.26685      22238.939      479.05155      18673.584    
   1300000   704.53417      22014.074      485.53876      18419.604    
   1400000   711.43109      19440.253      461.58197      18238.148    
   1500000   707.89259      22417.841      465.09053      18042.739    
   1600000   653.9341       23124.701      469.472        17834.345    
   1700000   671.76867      20740.324      485.08665      17591.932    
   1800000   688.06287      21880.196      460.05625      17404.643    
   1900000   715.52967      23370.797      454.0835       17226.378    
   2000000   662.57061      20026.167      475.33786      17004.528    
   2100000   740.31817      21700.529      459.64467      16810.791    
   2200000   669.63476      20336.389      461.01919      16612.589    
   2300000   680.74289      21076.39       453.73692      16424.415    
   2400000   678.23673      21849.35       469.71169      16209.82     
   2500000   706.67398      20933.565      467.78246      15997.996    
   2600000   677.12434      20250.411      464.46442      15790.368    
   2700000   690.76898      20486.33       476.70846      15567.22     
   2800000   724.77014      20788.328      455.95423      15369.58     
   2900000   695.05929      20513.003      457.37085      15168.783    
   3000000   703.40124      21464.411      469.27172      14953.858    
   3100000   703.70111      20557.894      461.99034      14746.526    
   3200000   726.2459       19460.573      473.16377      14527.763    
   3300000   674.60369      21772.958      458.30517      14323.36     
   3400000   750.55071      22202.166      460.39696      14116.222    
   3500000   703.86938      21219.691      468.07592      13901.891    
   3600000   699.58631      20794.406      470.4021       13685.721    
   3700000   681.25492      21093.736      468.61166      13471.127    
   3800000   704.81545      21926.986      461.12099      13262.252    
   3900000   691.08582      21465.789      461.39533      13052.766    
   4000000   707.69388      22697.779      463.86273      12841.188    
   4100000   689.87045      22544.917      467.19779      12627.2      
   4200000   729.28234      22874.122      471.08709      12410.77     
   4300000   736.42782      21707.767      472.18593      12193.878    
   4400000   654.41901      20877.082      474.85803      11975.701    
   4500000   726.05259      21518.453      469.78377      11760.642    
   4600000   674.14467      22156.638      472.34231      11544.324    
   4700000   713.85424      23286.444      458.02218      11335.667    
   4800000   747.01302      22500.375      460.68033      11125.242    
   4900000   708.15502      23001.518      467.12332      10911.43     
   5000000   744.43824      20986.806      466.56597      10697.863    
   5100000   707.77312      22444.931      454.92004      10489.537    
   5200000   745.13549      22894.631      454.19978      10281.091    
   5300000   699.30821      22710.193      452.03017      10073.14     
   5400000   678.39278      22213.417      467.85159      9858.3247    
   5500000   746.43446      21167.918      466.42888      9644.0817    
   5600000   653.93593      20903.522      463.8502       9430.7697    
   5700000   686.06754      21511.13       472.50565      9214.3987    
   5800000   660.80377      22595.403      450.08016      9005.8269    
   5900000   688.31016      21502.688      452.98782      8795.8027    
   6000000   689.06126      21570.667      465.86424      8581.353     
   6100000   695.88826      22044.679      467.39217      8366.4478    
   6200000   678.24525      21300.67       452.87234      8155.7778    
   6300000   692.17791      20692.746      465.04476      7941.3913    
   6400000   714.9709       20965.311      466.62996      7726.5736    
   6500000   682.89433      20418.965      469.59564      7511.0431    
   6600000   684.51352      21182.88       467.36917      7296.1134    
   6700000   683.63406      20019.56       455.89465      7083.865     
   6800000   704.22753      20405.015      463.59414      6869.6934    
   6900000   677.27268      21761.552      460.11137      6656.2109    
   7000000   671.7798       21742.624      461.0962       6442.4193    
   7100000   723.10849      21918.153      473.04383      6226.3035    
   7200000   642.68664      21117.499      468.1407       6011.1799    
   7300000   701.54601      22758.228      473.46352      5795.2094    
   7400000   730.02323      22626.171      458.95238      5581.714     
   7500000   660.99542      22301.17       450.82644      5369.4105    
   7600000   706.96334      22967.175      460.07512      5155.4486    
   7700000   715.09365      21910.452      452.77108      4942.446     
   7800000   734.02836      21063.194      455.43235      4728.8777    
   7900000   747.23801      22358.224      466.66245      4513.753     
   8000000   715.22506      22066.759      476.14375      4297.5823    
   8100000   701.86455      22122.581      467.46639      4082.478     
   8200000   679.0315       21525.051      481.41691      3866.0419    
   8300000   707.93275      22220.35       475.72567      3650.3248    
   8400000   681.27012      22108.185      479.65188      3434.4111    
   8500000   749.30688      22146.476      492.9181       3217.6821    
   8600000   696.28281      23084.354      483.84461      3001.8946    
   8700000   693.18385      23828.65       510.74087      2784.6902    
   8800000   694.06157      22273.154      514.91761      2567.7558    
   8900000   689.49493      20026.228      523.59302      2350.9345    
   9000000   690.62978      21603.863      526.87022      2134.5553    
   9100000   751.27837      20532.343      564.65716      1917.504     
   9200000   716.40584      23769.597      561.24383      1701.415     
   9300000   710.33728      20538.698      643.65655      1484.4241    
   9400000   697.41382      21704.729      661.19114      1268.4815    
   9500000   741.42463      22467.317      705.31291      1053.403     
   9600000   679.87507      21020.898      727.6895       839.66995    
   9700000   684.21911      22248.757      730.6688       627.49298    
   9800000   728.43648      22963.21       727.52785      416.86513    
   9900000   734.77863      22095.824      716.76161      207.73644    
  10000000   711.66751      22075.653      727.39214      0            
Loop time of 20703.4 on 1 procs for 10000000 steps with 522 atoms

Performance: 41.732 ns/day, 0.575 hours/ns, 483.013 timesteps/s, 252.133 katom-step/s
99.5% CPU use with 1 MPI tasks x 1 OpenMP threads

MPI task timing breakdown:
Section |  min time  |  avg time  |  max time  |%varavg| %total
---------------------------------------------------------------
Pair    | 20421      | 20421      | 20421      |   0.0 | 98.64
Neigh   | 6.1809     | 6.1809     | 6.1809     |   0.0 |  0.03
Comm    | 43.13      | 43.13      | 43.13      |   0.0 |  0.21
Output  | 151.37     | 151.37     | 151.37     |   0.0 |  0.73
Modify  | 64.924     | 64.924     | 64.924     |   0.0 |  0.31
Other   |            | 16.4       |            |       |  0.08

Nlocal:            522 ave         522 max         522 min
Histogram: 1 0 0 0 0 0 0 0 0 0
Nghost:           1461 ave        1461 max        1461 min
Histogram: 1 0 0 0 0 0 0 0 0 0
Neighs:              0 ave           0 max           0 min
Histogram: 1 0 0 0 0 0 0 0 0 0
FullNghs:        19044 ave       19044 max       19044 min
Histogram: 1 0 0 0 0 0 0 0 0 0

Total # of neighbors = 19044
Ave neighs/atom = 36.482759
Neighbor list builds = 8038
Dangerous builds = 0
write_data FINAL_STRUCTURE
System init for write_data ...
Total wall time: 5:45:03
