LAMMPS data file via write_data, version 10 Sep 2025, timestep = 10000000, units = metal

513 atoms
1 atom types

0 21.763403 xlo xhi
0 21.763403 ylo yhi
0 21.763403 zlo zhi

Masses

1 28.085

Atoms # atomic

513 1 1.2980503067697788 1.783142800671797 1.5474984327251906 0 0 0
2 1 21.566994631134566 2.9506367660840427 2.9205712131840054 -1 0 0
8 1 2.6979084562612266 0.07140314246927268 2.631259498479 0 0 0
6 1 2.8509567907712503 2.829953708030895 0.0457118357941585 0 0 0
130 1 5.688242785591571 2.631753306021102 2.922310068312427 0 0 0
135 1 7.076217628549514 1.4123670333248348 1.4901361725102293 0 0 0
258 1 11.061551277933692 2.6453068514262514 2.7223435092997113 0 0 0
263 1 12.186338832129122 1.1753058210581329 1.323238694700419 0 0 0
264 1 13.521563946618555 21.738088500129326 2.6584452898817745 0 -1 0
262 1 13.59328502645651 2.6418247857379824 0.04234732076960415 0 0 0
386 1 16.279234730185916 2.7993633038937946 2.479173283703714 0 0 0
391 1 17.64307026222019 1.4187325467683118 1.302771577909159 0 0 0
388 1 16.296301161242678 0.055889086647918466 0.11516611760889696 0 0 0
392 1 19.044850745782206 0.15546265664428904 2.719825435223296 0 0 0
390 1 19.01214247719424 2.6386886932200655 21.658466886963947 0 0 -1
40 1 2.8631567401901754 5.491930913181539 2.8365453114347154 0 0 0
1 1 4.1715151669894395 4.052469826812872 1.4853302624419424 0 0 0
164 1 5.577912845638226 5.354362802243708 0.0978190060740598 0 0 0
168 1 8.215777605752608 5.295204025009708 2.6678174218707054 0 0 0
129 1 9.60020799494881 3.9988890562354538 1.3038083126275914 0 0 0
292 1 10.907035691616946 5.535062629069874 0.03857134718955415 0 0 0
257 1 14.935291732350747 4.271363627364878 1.2072920542383585 0 0 0
296 1 13.59752828502033 5.463849508926174 2.807627623606606 0 0 0
385 1 20.318237912159475 4.2876384477559295 1.2873510608501184 0 0 0
424 1 18.957653004420536 5.500719265998613 2.630957756802155 0 0 0
36 1 0.023856431044123383 5.560426332584116 0.07158223905405448 0 0 0
39 1 1.4924176254807684 6.74311779482918 1.5194676259499569 0 0 0
38 1 2.8816476769484574 7.9533637103758466 0.17434482442784652 0 0 0
162 1 5.579957056432937 7.995067293577644 2.9174762082906684 0 0 0
167 1 6.805192260941445 6.770040417421412 1.5227865654097446 0 0 0
290 1 10.834646346545625 8.142194603468692 2.8180704660372733 0 0 0
295 1 12.19604398044201 6.81117391435277 1.4182827159375329 0 0 0
161 1 9.464894072470278 9.52653584089322 1.6608364150804986 0 0 0
418 1 16.3467378328351 8.045069267796972 2.6232465414713215 0 0 0
423 1 17.73017805834592 6.915674485060684 1.1674816306765412 0 0 0
34 1 21.68464844950798 8.134801034949183 2.6868454459798916 -1 0 0
72 1 2.8257008321296513 10.835874297942091 2.652186323663401 0 0 0
71 1 1.3992416626183235 12.078147708592844 1.312581428814973 0 0 0
68 1 0.07622803156964524 10.765068280345696 0.01587743094246196 0 0 0
33 1 4.329622628473204 9.347164917618993 1.4744836610503653 0 0 0
196 1 5.540780884632692 11.002113045970836 21.746491093538967 0 0 -1
200 1 8.076480415027456 10.884558148414369 2.9801655837157703 0 0 0
199 1 6.801450010254132 12.362150158589428 1.5673799641421295 0 0 0
327 1 12.452666278877873 12.157482423755324 1.2927397519575492 0 0 0
289 1 15.11547410031504 9.47714405355919 1.164232717280098 0 0 0
328 1 13.777017234753623 10.858664822673587 2.7294158040326493 0 0 0
455 1 17.739614863800714 12.105333277396058 1.434348075415774 0 0 0
452 1 16.408066282360718 11.02363836735597 21.59228196632878 0 0 -1
417 1 20.337851351286062 9.452359994678803 1.2851190703931608 0 0 0
456 1 19.168110889104458 10.820520171394813 2.619050933628758 0 0 0
66 1 0.1928799508644846 13.609404929470507 2.6745780374787333 0 0 0
65 1 3.993746186445194 14.831157198743753 1.554487421000255 0 0 0
194 1 5.277067693144707 13.568582170478159 2.894461787641367 0 0 0
193 1 9.537598738040352 15.041176738871032 1.4054572507851384 0 0 0
322 1 10.894387577152854 13.495063799055416 2.704811778973289 0 0 0
321 1 14.980343951243128 14.879199809500989 1.5330444170858457 0 0 0
326 1 13.618094554522337 13.497732487930456 0.05902767800485165 0 0 0
450 1 16.499260073185326 13.522673700123061 2.769507668393288 0 0 0
449 1 20.279288943260234 14.855114674095383 1.3796135880518128 0 0 0
454 1 18.859159532012626 13.336332797117024 21.719932723891265 0 0 -1
103 1 1.1728215034498324 17.695723573911895 1.1843647620412707 0 0 0
104 1 2.6007489150113274 16.48039675772479 2.713410490315045 0 0 0
228 1 5.347315387979809 16.1394588996011 0.004478933946567339 0 0 0
231 1 6.874817327209017 17.507359819336806 1.4116546426404413 0 0 0
232 1 8.214283747845675 16.1524756361748 2.877417261013367 0 0 0
359 1 12.459853519412198 17.53964056090826 1.2814360252806758 0 0 0
360 1 13.630454302910985 16.342700008664956 2.8885765176069147 0 0 0
487 1 17.52767669421205 17.539273160568783 1.3237837679959625 0 0 0
484 1 16.219148324621813 16.148878683425128 21.757378891034204 0 0 -1
488 1 18.985774996309587 16.185370823710574 2.7771325720972 0 0 0
102 1 2.777922251015167 19.01763799253656 21.70363902585347 0 0 -1
97 1 4.142337850065657 20.331152615553993 1.4148108433448918 0 0 0
226 1 5.554452549098168 18.88055621801581 2.7342443336231743 0 0 0
136 1 8.36529546154547 21.553889535005094 2.8063001936969907 0 -1 0
225 1 9.79392532231694 20.262856248465745 1.2893255868174498 0 0 0
354 1 11.084415605395664 18.89408322112315 2.7766267849419908 0 0 0
353 1 14.97910336845278 20.326255597393757 1.267707187529121 0 0 0
358 1 13.558247826676043 19.056817915267413 0.026510682855744372 0 0 0
482 1 16.373527249276343 19.078158452740695 2.717197332886365 0 0 0
98 1 0.011128084151664552 19.04923105308834 2.7156623617641085 0 0 0
481 1 20.283927818973208 20.48461029596885 1.5260623988688606 0 0 0
486 1 19.13450813307995 18.955228316537102 21.734862451982533 0 0 -1
14 1 2.8891136784543687 2.7115082562995245 5.477407831574521 0 0 0
3 1 4.088356645420717 1.3504374362849094 4.032838457342312 0 0 0
142 1 8.382449921862827 2.566941508063491 5.604060069649758 0 0 0
131 1 9.763126107696023 1.240570664825884 4.084455537501011 0 0 0
268 1 11.035132402072154 21.701138425654403 5.633430634804673 0 -1 0
259 1 15.030962826832958 1.3333883699950857 3.8408605267858267 0 0 0
270 1 13.830843562474108 2.555405263350331 5.430846864093625 0 0 0
396 1 16.203192269699127 0.013186623770507477 5.382627946578524 0 0 0
387 1 20.459031494896866 1.2991594361603451 4.188992378449281 0 0 0
398 1 18.8382532866183 2.5716888117629453 5.452148145629737 0 0 0
12 1 0.12302709108404741 21.608116875998842 5.4814845166129516 0 -1 0
5 1 1.4886511203088082 4.135871549568514 4.048298999749301 0 0 0
172 1 5.62101819596601 5.541174129853861 5.556613838066819 0 0 0
133 1 7.016661931892772 4.061899324063318 4.217805947904988 0 0 0
300 1 11.024983516496023 5.178410080570585 5.6547023575791036 0 0 0
261 1 12.389363303536314 4.017244081523479 4.134051384190759 0 0 0
389 1 17.574336159069404 4.005793263115389 4.054419464666589 0 0 0
428 1 16.279233518912164 5.4925936134811195 5.455690783214041 0 0 0
44 1 21.63845807411979 5.207635696557837 5.404127394310828 -1 0 0
46 1 2.64119333259339 8.404077054549793 5.549736583941467 0 0 0
35 1 3.944745790008568 6.893893323433018 4.4468740718800115 0 0 0
174 1 8.243881723166956 8.070767551234505 5.410777011441507 0 0 0
163 1 9.676661245168027 6.570140992405188 4.087117814484063 0 0 0
291 1 14.957023275474796 6.896558419054585 4.237976712831797 0 0 0
302 1 13.477429558906307 8.093201439051843 5.5318832162692955 0 0 0
419 1 20.222123719784296 6.7832084760308415 4.082049504088949 0 0 0
430 1 18.960588004535293 8.199483501843897 5.561532689482273 0 0 0
37 1 1.3872274702368335 9.598571489361987 4.045037578409368 0 0 0
76 1 0.0888296808036831 10.85142800726059 5.501444990715499 0 0 0
204 1 5.456232093680544 10.88889349529247 5.497264544378609 0 0 0
67 1 4.043819802121585 12.392600284325535 4.275123780644323 0 0 0
165 1 6.815367186071448 9.320850651633082 4.141929492608422 0 0 0
332 1 10.89939015930095 10.969905577898967 5.454249614396771 0 0 0
293 1 12.393618330618047 9.622661565785195 4.015816645134719 0 0 0
195 1 9.608544212163 12.33072842387884 4.164646308029422 0 0 0
323 1 15.045626904298402 12.346126880511795 4.14128873708275 0 0 0
421 1 17.670472761902403 9.620329412363102 3.9942030564299786 0 0 0
460 1 16.216667078256982 10.75215898440772 5.543736290990609 0 0 0
451 1 20.603091176167748 12.345916561552375 3.986870522541355 0 0 0
69 1 1.560046925111425 14.880274816280014 4.235987109465524 0 0 0
78 1 2.7184207660753605 13.764002121489668 5.728915332078262 0 0 0
197 1 6.638545012205605 15.005711729929999 4.406706771170664 0 0 0
206 1 8.057524034541212 13.507954708036326 5.567081674377568 0 0 0
325 1 12.098265335607595 14.819747986060372 4.133070667224242 0 0 0
334 1 13.785464905226654 13.659675906957974 5.461352316952376 0 0 0
453 1 17.71678594005548 14.81299908068989 4.018749185788548 0 0 0
462 1 19.239491747071902 13.49496889970979 5.444002747642143 0 0 0
99 1 4.091717027681487 17.643695328361115 4.0899108464787 0 0 0
236 1 5.363246674929217 16.459599195005712 5.61314698443801 0 0 0
227 1 9.476524342457417 17.581401757280844 4.028256086146571 0 0 0
364 1 10.920904105005864 16.177617312697127 5.368141026606998 0 0 0
355 1 15.104953852058888 17.70715573771818 4.170542728590487 0 0 0
492 1 16.518905646596128 16.28298328034103 5.458592686180341 0 0 0
108 1 0.06906145413841713 16.39257698621026 5.5138716309412 0 0 0
483 1 20.422141817978424 17.614708400619612 4.055134919977183 0 0 0
101 1 1.519453787898667 20.41778524703375 3.9727333327729184 0 0 0
110 1 2.8035433704359862 19.064178844870966 5.420662686069661 0 0 0
140 1 5.501131562321823 21.754494711791626 5.369133234739789 0 -1 0
229 1 6.885791503489655 20.350411389881266 4.115094905830621 0 0 0
238 1 8.306559407331672 18.947957198561067 5.347610862710772 0 0 0
357 1 12.281265454130283 20.269274793150178 4.225052378864026 0 0 0
366 1 13.491365047608019 18.819548150960987 5.537149272002111 0 0 0
485 1 17.7309193294928 20.621941238568816 4.067398785887384 0 0 0
494 1 19.172382030801753 19.16423168703405 5.473208944264751 0 0 0
15 1 1.495672787951092 1.3145285896018244 6.753675185613003 0 0 0
138 1 5.559488664720953 2.7016419377925214 8.157239609584737 0 0 0
143 1 6.880242465126595 1.1597849972398802 6.788802918352464 0 0 0
144 1 8.399848067748216 21.427830852020872 7.98301372792772 0 -1 0
266 1 10.99822366718931 2.609010439722075 8.110409482635594 0 0 0
271 1 12.471736557399614 1.4068249963242148 6.860638390473724 0 0 0
272 1 13.662619578933027 21.70118784767537 8.158500317553612 0 -1 0
394 1 16.35264538507089 2.6088255164479146 8.22468540784041 0 0 0
399 1 17.642111222764935 1.2824924274792402 6.862182555564601 0 0 0
10 1 0.009873125876605826 2.441366455562907 8.167299556116362 0 0 0
400 1 19.065086344458265 21.60424045887859 8.127933439652097 0 -1 0
48 1 2.6850516364217683 5.5421910350987655 8.300061973795712 0 0 0
9 1 4.172538234845921 4.101605701432239 6.903713756810651 0 0 0
176 1 8.173977349302897 5.322998016658731 8.296031264598312 0 0 0
137 1 9.57986669051596 3.9086106186035705 6.981137793532839 0 0 0
265 1 15.0573944284913 3.9641341813009214 6.903835577682147 0 0 0
304 1 13.604177144416475 5.2950132783056265 8.265619111129048 0 0 0
393 1 20.291239955747482 3.8800070401080196 6.74403848958945 0 0 0
432 1 18.92335064117029 5.543276715061697 8.149891536828925 0 0 0
47 1 1.3060469878461658 6.756442689934257 6.71949074573756 0 0 0
42 1 21.73632522057127 8.236290627393723 8.040351574497269 -1 0 0
170 1 5.47609647109581 8.19420781302432 8.103567814955406 0 0 0
175 1 6.955175543774705 6.7190949032414435 6.973347353112756 0 0 0
298 1 10.912096931807906 8.171919687000367 8.20998821233494 0 0 0
303 1 12.228121492548253 6.649799988577903 6.94275910267291 0 0 0
426 1 16.210754241093007 7.972448794143287 8.206452876528203 0 0 0
431 1 17.62932243925833 6.848883084916432 6.806238097793345 0 0 0
80 1 2.6295250583658247 11.068611570468857 8.315440926412233 0 0 0
79 1 1.4219833471791026 12.225357726255314 6.9615669385925685 0 0 0
41 1 4.089850989669075 9.661150673408976 6.961004505192257 0 0 0
208 1 8.119975141022989 10.712979759216449 8.277249014136844 0 0 0
207 1 6.8120542537234945 12.044470243098287 6.867618949950798 0 0 0
169 1 9.571947087344924 9.612153261461513 6.8275947030498285 0 0 0
335 1 12.348142800310294 12.226961122648573 6.784823617785114 0 0 0
297 1 14.838990818318337 9.455659276506124 6.815901235521051 0 0 0
336 1 13.602831808438646 10.918711677044593 8.137765975004067 0 0 0
463 1 17.68251459500744 12.179246179040218 6.7063396464811005 0 0 0
429 1 17.55329529514213 9.497706093736447 9.514789593984254 0 0 0
425 1 20.51461229273217 9.581729099828143 6.8009400413883325 0 0 0
464 1 18.915851446305624 10.864590133349582 8.161740487043495 0 0 0
73 1 4.2913390055331755 15.06098497027533 6.940256251972136 0 0 0
202 1 5.621460759457454 13.496928577096316 8.11422115844825 0 0 0
201 1 9.609876601462656 14.96645589346656 6.898081687593852 0 0 0
330 1 10.985175824664672 13.6602764382846 8.059469777465035 0 0 0
329 1 15.116106679274598 14.906576119402098 6.790595884744324 0 0 0
458 1 16.433547342724037 13.501262049050558 8.028390628377476 0 0 0
74 1 21.736868160864514 13.628111293229097 8.043151134068042 -1 0 0
457 1 20.47321651647274 14.939239265043485 6.727669093934969 0 0 0
111 1 1.4250991032788074 17.61713737984644 6.877936253801994 0 0 0
112 1 2.877394947751967 16.41703054195374 8.275331327300504 0 0 0
239 1 6.860322290444114 17.699546880985064 6.796167034252568 0 0 0
240 1 8.176238988651257 16.115996136542662 8.154434246297184 0 0 0
367 1 12.342376084059536 17.403221529629487 6.909564012872117 0 0 0
368 1 13.71217630103009 16.204828039708612 8.291391612747505 0 0 0
495 1 17.772696070216245 17.779226661155793 6.8203545183412615 0 0 0
496 1 19.11384482312657 16.362783411398922 8.068086702584548 0 0 0
16 1 2.897103183857317 21.72948488766653 8.120690393114268 0 -1 0
105 1 4.1768759718184745 20.36423107010336 6.755168079922249 0 0 0
234 1 5.536563095807095 19.064163893808896 8.158833436553943 0 0 0
233 1 9.834981113557262 20.030181126267795 6.761623582729413 0 0 0
362 1 11.014375411457955 18.78243501750254 8.333960616108133 0 0 0
361 1 14.832201716416268 20.39736714700885 6.677688743122959 0 0 0
490 1 16.278223771280125 18.8905105521852 8.198548559552393 0 0 0
106 1 21.752796256581355 19.037132221509076 8.26906303641596 -1 0 0
489 1 20.408554857782125 20.34171798402367 6.830900272068685 0 0 0
22 1 2.657918489928373 2.9040666390170347 10.769048889426442 0 0 0
23 1 1.5359497225327587 1.4236812689180172 12.131802905166307 0 0 0
11 1 4.1186919459032465 1.4691882533290384 9.529102784096258 0 0 0
148 1 5.52208133800859 0.08094077525429948 10.924556667270275 0 0 0
150 1 8.129339635668755 2.7430556826051355 10.884322783248805 0 0 0
151 1 6.804727574897555 1.5719361576181157 12.271483402144614 0 0 0
139 1 9.498421930399568 1.2054365083442344 9.468988807440997 0 0 0
279 1 12.122487663521829 1.4407915052053635 12.032903663048234 0 0 0
267 1 14.858762054361128 1.4275951937843063 9.570150648454792 0 0 0
278 1 13.48829814985663 2.876247697508182 10.672668991589765 0 0 0
407 1 17.667295720870012 1.6709652737040914 12.146942579737173 0 0 0
404 1 16.254068527928602 21.73184177946239 10.820203571925575 0 -1 0
395 1 20.406865930403033 1.0807819601020316 9.546728291705723 0 0 0
406 1 19.055831703521967 2.8072906530799777 10.671658024045922 0 0 0
13 1 1.1731453090343897 4.130579197335943 9.472008850502128 0 0 0
52 1 21.722462942180442 5.414008279374492 10.824310938108479 -1 0 0
180 1 5.335335301953123 5.425052143759255 10.855597364232697 0 0 0
17 1 3.9574858220914413 4.22208305435119 12.314830798379873 0 0 0
141 1 6.710776379990463 4.018768477765075 9.615164064592031 0 0 0
145 1 9.349488954955113 4.174086659614478 12.092780608336044 0 0 0
308 1 10.7688706072292 5.580892427875505 11.065802770052667 0 0 0
269 1 12.023431083610944 4.268204036735093 9.604039608767119 0 0 0
273 1 14.92140306468501 4.135892794792172 12.224220202317703 0 0 0
397 1 17.65735066686485 4.109945288435611 9.424176019994528 0 0 0
436 1 16.370425516266515 5.372335254288364 10.91038497066974 0 0 0
54 1 2.587974682723129 8.069282518218909 10.944266901205381 0 0 0
55 1 1.2073566707380639 6.693021354601959 12.24115903733281 0 0 0
43 1 4.0606845328225525 6.923885843828504 9.500874037535247 0 0 0
182 1 8.06582755270555 8.152254164803903 11.000476660709857 0 0 0
183 1 6.6094753093859815 6.687135387928011 12.415305324282231 0 0 0
171 1 9.352408387362097 6.768517814973234 9.569078490768533 0 0 0
311 1 12.30146191382554 6.941328271166631 12.309668352207751 0 0 0
299 1 14.96257452489359 6.606281465418456 9.542630414879982 0 0 0
310 1 13.762239158251386 8.277317047863198 10.77195211691932 0 0 0
439 1 17.699050050542915 6.809524264976307 12.13546596776032 0 0 0
427 1 20.412762747573478 6.896122450964845 9.485975824985196 0 0 0
438 1 19.072441115793442 8.392083174494031 10.754072301954052 0 0 0
45 1 1.2855042845861984 9.583456677548877 9.48276786902961 0 0 0
87 1 1.5308028130372169 12.348583773200527 12.268133390884529 0 0 0
84 1 0.012644819994611117 11.092725532637242 10.91801673788537 0 0 0
75 1 4.146505776856242 12.366921333993135 9.511312050723047 0 0 0
49 1 3.9581420319950373 9.452359196839181 12.346198954973188 0 0 0
212 1 5.353212862489503 10.851077261618633 11.033817412466375 0 0 0
173 1 6.7272108426475326 9.492190082576455 9.594343058859147 0 0 0
177 1 9.511783420462201 9.548160215967906 12.183826087464004 0 0 0
340 1 10.892633977701758 10.913593092207778 10.899739754857436 0 0 0
343 1 12.380489969632203 12.396377270190046 12.072205435744017 0 0 0
301 1 12.328172640024995 9.577708203587623 9.605957208671297 0 0 0
305 1 15.113655431206134 9.521637861767415 12.32369629805637 0 0 0
331 1 15.019835261829291 12.251553145066698 9.448086311476208 0 0 0
468 1 16.319821120214915 10.908394545833294 10.853165281663935 0 0 0
471 1 17.747918451013497 12.347632045576933 12.079632171538075 0 0 0
459 1 20.403209268675784 12.343177250056826 9.418183436052177 0 0 0
77 1 1.276017357334425 14.94096579116473 9.517553946179582 0 0 0
86 1 2.819452109850163 13.717779238341235 10.829029738537125 0 0 0
81 1 4.091897728674845 15.198568257674822 12.204437015322958 0 0 0
215 1 6.824881909534671 12.171783991797973 12.178662839984849 0 0 0
205 1 6.920880088649481 14.772524130859216 9.596008076462907 0 0 0
214 1 8.356484939675992 13.437266581220392 10.811331258876109 0 0 0
203 1 9.671576015960508 12.242634783272697 9.326482117892233 0 0 0
333 1 12.199169473805991 14.850102367552983 9.521225723363422 0 0 0
209 1 9.355719574811165 14.928720206704531 12.3766224369474 0 0 0
342 1 13.86914357072766 13.759392679216491 10.825241311233619 0 0 0
337 1 15.014095317714249 15.190590556695044 12.150385413626807 0 0 0
461 1 17.902971229141208 14.8960689760095 9.348498518655912 0 0 0
470 1 19.217628464659615 13.797682958321316 10.740075035706461 0 0 0
465 1 20.497601898607094 15.052872097733225 12.332678938049698 0 0 0
119 1 1.1036633784701264 17.691191051554867 12.130009487177576 0 0 0
107 1 4.274095684915215 17.687169389750775 9.522499200052218 0 0 0
244 1 5.608052011226843 16.26938136877182 10.913799558503401 0 0 0
247 1 6.928726824765516 17.603277743975163 12.497118830782702 0 0 0
235 1 9.571052904143174 17.288981009428095 9.508478396122788 0 0 0
372 1 10.706218221426774 16.13266835719764 11.013435143771561 0 0 0
375 1 12.197478472423938 17.597030690073428 12.200274886160532 0 0 0
363 1 15.005696902538249 17.633141170572515 9.699958312866915 0 0 0
500 1 16.49690489034187 16.28041218047006 10.757585120568857 0 0 0
503 1 17.75781486872286 17.773476526627952 12.315273854916976 0 0 0
116 1 21.64290661021761 16.191483346920798 10.79181235466653 -1 0 0
491 1 20.43225076448902 17.64251130094966 9.504237051808683 0 0 0
20 1 0.0908105275284809 0.038392150743209896 10.920467143183592 0 0 0
109 1 1.2741807179963924 20.40709540330686 9.439353144966956 0 0 0
118 1 2.7073711370396216 19.01505599821239 10.865754895352433 0 0 0
113 1 4.149967851056244 20.394132793222195 12.19936539696095 0 0 0
237 1 6.841751856886627 20.29707852280476 9.550366530734996 0 0 0
246 1 8.19053013942291 18.6814977873071 10.890455335321443 0 0 0
276 1 10.84796744535259 21.74508683335275 10.784548854568095 0 -1 0
241 1 9.403055688892891 20.441372526937883 12.189188743855608 0 0 0
365 1 12.325601007086131 20.20032840612675 9.556947931871596 0 0 0
374 1 13.714297082318437 18.870023592982225 11.005955230607817 0 0 0
369 1 15.000674865976688 20.574555757110794 12.361597520450319 0 0 0
493 1 17.533735493353394 20.413033786763226 9.550623130064883 0 0 0
502 1 19.117817536675467 19.18809644111127 10.953650149312677 0 0 0
497 1 20.4200163045402 20.662375476285938 12.32243966173301 0 0 0
19 1 4.094674925191383 1.4012085364492153 15.17264435205573 0 0 0
146 1 5.351099774557299 2.7431724642596667 13.75501004379606 0 0 0
147 1 9.415921954342467 1.3923161668691555 14.844261898655398 0 0 0
274 1 10.716205362838197 2.7193456468368553 13.295095056462316 0 0 0
275 1 14.909183713052357 1.410537753987944 14.805674933206006 0 0 0
402 1 16.215669373002548 2.814228090595487 13.591386775090088 0 0 0
18 1 21.760242743463273 2.7496456505938354 13.39713412942262 -1 0 0
403 1 20.190567913953952 1.7351783545999464 15.010801166145535 0 0 0
21 1 1.3974616572658094 4.168188953034319 14.984165764462261 0 0 0
56 1 2.686125489629938 5.429593335597534 13.566824018892552 0 0 0
149 1 6.743430528360139 4.142421474339172 14.982975157284125 0 0 0
184 1 8.157215199927808 5.442689733741604 13.565014001270697 0 0 0
277 1 12.145837182538648 3.8995601376288898 14.801908663604044 0 0 0
312 1 13.52501003783163 5.441053009079187 13.655981564907563 0 0 0
405 1 17.560214445091365 4.24911547725126 14.961162677327446 0 0 0
401 1 20.33855797311243 4.1620034386966545 12.208511204254124 0 0 0
440 1 18.991110983346527 5.461825259696083 13.449190461067774 0 0 0
50 1 0.10723233688266906 8.20160358884698 13.73443653018211 0 0 0
51 1 4.033349506089283 6.800694975739815 15.012262567731474 0 0 0
178 1 5.421137808905873 8.199790629636281 13.621241873163072 0 0 0
179 1 9.447641058776457 6.845726741585403 14.900871047560337 0 0 0
306 1 10.739080869949737 8.28422437613412 13.610568524202865 0 0 0
307 1 14.997680590916774 6.87530434252874 14.694286099245117 0 0 0
434 1 16.41093250872566 8.175083497897388 13.449749135140204 0 0 0
435 1 20.397651979307458 6.8730065263112685 14.800357531990018 0 0 0
53 1 1.4354771500046661 9.718830104683322 14.942704492172927 0 0 0
88 1 2.9144609945993682 11.122728526140769 13.591623122289265 0 0 0
83 1 4.339803018082534 12.435748461417443 15.000807166901112 0 0 0
181 1 6.765861070000112 9.53345821078469 15.169458566557998 0 0 0
216 1 8.152979598412461 10.885196344598958 13.661194721500625 0 0 0
309 1 12.178345884450763 9.69027159140339 14.899912948084253 0 0 0
211 1 9.496295593980868 12.18330004094821 14.788247449629782 0 0 0
344 1 13.63270515069963 11.025691912817342 13.611680240689266 0 0 0
339 1 14.97659161760038 12.345165449684837 14.956891293768038 0 0 0
437 1 17.686888824638867 9.458054593134046 14.855809906279372 0 0 0
433 1 20.499193261330085 9.6172490546366 12.215846986323362 0 0 0
472 1 19.06176052361234 10.855461271749176 13.548773048788643 0 0 0
467 1 20.46699295320697 12.305849781224097 14.930490520467735 0 0 0
85 1 1.3261924325192622 15.004775749970245 14.79265741947604 0 0 0
82 1 0.05715270705341489 13.596710675644262 13.559966448185566 0 0 0
210 1 5.563330854574172 13.734839571941466 13.39313492696154 0 0 0
213 1 6.66857438318661 14.882542684898892 14.979527267679961 0 0 0
338 1 10.993427410793583 13.589961370894576 13.596583560002445 0 0 0
341 1 12.285682470114182 14.901842569183312 15.067016651258566 0 0 0
466 1 16.417012612394434 13.759505326257658 13.542912155209326 0 0 0
469 1 17.707375148797265 15.14398237356424 14.990843672986076 0 0 0
120 1 2.424754039235184 16.626066450576754 13.65117189734152 0 0 0
115 1 4.119154600761694 17.883046559487447 14.906111843769333 0 0 0
248 1 8.096321472951063 16.301162145765485 13.788607279184493 0 0 0
243 1 9.465953986079947 17.642627782546935 14.991933401465909 0 0 0
371 1 14.923785187407109 17.738411340453677 14.799219366770306 0 0 0
376 1 13.445981757494275 16.34254712873832 13.578503008000892 0 0 0
499 1 20.47864339247429 17.818352589116966 15.008986793946994 0 0 0
504 1 19.055037137030432 16.43695682703863 13.713760348099187 0 0 0
24 1 2.823899416787 0.1077867439080471 13.670395975714385 0 0 0
117 1 1.2887926219638217 20.58457693138905 14.881949219660264 0 0 0
114 1 21.69705534464919 19.251231538948513 13.609913562936702 -1 0 0
242 1 5.545495977681437 19.213582437596 13.641177935635168 0 0 0
152 1 8.090438374589858 0.13565596647091738 13.396816966930222 0 0 0
245 1 6.772915342471741 20.54333752598043 14.954942697565999 0 0 0
370 1 10.871005360028702 19.051847926216183 13.724039087611798 0 0 0
373 1 12.205722440969518 20.522325342521683 15.094727354463746 0 0 0
280 1 13.366821711175657 0.1264006807701712 13.559297605920205 0 0 0
498 1 16.357554333568682 19.245709308634694 13.616382298929157 0 0 0
501 1 17.621266249161334 20.609518067995 14.907690292415852 0 0 0
408 1 19.01222189993858 0.16244176373183095 13.5156770240938 0 0 0
30 1 2.7996084893432167 2.756082826458277 16.52508956411156 0 0 0
31 1 1.2579181234456325 1.443250988919599 17.832550070504773 0 0 0
158 1 8.119489157767182 2.765505296633317 16.31604315921941 0 0 0
159 1 6.809254092361625 1.3607384629719477 17.72573014019659 0 0 0
287 1 12.2855250356607 1.3467108446963212 17.511266844323153 0 0 0
286 1 13.500402308114612 2.7827483528470824 16.332525892664407 0 0 0
415 1 17.48767472739754 1.5366885664610002 17.54806345295076 0 0 0
412 1 16.111031079441304 21.70771099107083 16.326903910904935 0 -1 0
414 1 18.777007308604006 2.977799164861669 16.484899742687613 0 0 0
60 1 21.676089841164735 5.550834658673326 16.188555929109747 -1 0 0
25 1 4.199541118343016 3.9790956654912013 17.79678287602784 0 0 0
188 1 5.359630684526996 5.438688506289595 16.474663271574563 0 0 0
153 1 9.617659197768651 4.1081573650528895 17.69719652915924 0 0 0
316 1 10.940735139711926 5.4414969672645155 16.187284688076815 0 0 0
281 1 14.95516439301965 4.187580719406441 17.61747204123768 0 0 0
444 1 16.242829957608418 5.634361649016945 16.176500659383596 0 0 0
409 1 20.37868000852991 4.145851196810894 17.786725090803564 0 0 0
62 1 2.67537678907543 8.282187150733137 16.431969368078878 0 0 0
63 1 1.4566080768556462 6.71154018974313 17.807745975074056 0 0 0
190 1 8.09040203359573 8.059590055040042 16.42878557468493 0 0 0
191 1 6.7793482138855685 6.805313176081519 17.91586746923787 0 0 0
319 1 12.355905493233948 6.802641420617373 17.5103708262715 0 0 0
318 1 13.648857518081982 8.230543518881683 16.126728099177704 0 0 0
447 1 17.563071441105432 6.95009633413945 17.504564451492886 0 0 0
446 1 19.059332813747147 8.203039209909694 16.274287800209713 0 0 0
95 1 1.2798230207258274 12.275901910619446 17.718264407509462 0 0 0
92 1 0.07151240616968864 10.988341609987861 16.356100583916316 0 0 0
57 1 4.129551059832495 9.478079783250752 17.75707373091341 0 0 0
220 1 5.5410967038261925 11.017841918173076 16.4648299607497 0 0 0
223 1 6.9567321859476055 12.249050379115946 17.818470731109052 0 0 0
185 1 9.437425319628742 9.340768089536144 17.648251473194396 0 0 0
348 1 10.855666033466141 10.767301379734679 16.18795055862734 0 0 0
351 1 12.109750094918397 12.049729953097415 17.753009030468373 0 0 0
313 1 14.918838682053144 9.695850244959834 17.5418675915012 0 0 0
476 1 16.383919719286535 10.969361187854604 16.153907445722567 0 0 0
479 1 17.75082340657956 12.207825908889367 17.477056174819364 0 0 0
441 1 20.50376567255136 9.513499231062978 17.5945509812255 0 0 0
94 1 2.5662527839655946 13.519568950514705 16.135769821591452 0 0 0
89 1 3.9992736520845185 14.968835094577123 17.607097272069534 0 0 0
222 1 8.1412187608726 13.475779791780035 16.255367899722323 0 0 0
217 1 9.450916485819025 14.764183033476236 17.585000625736548 0 0 0
345 1 15.058291743292099 15.027551163370159 17.598543930879565 0 0 0
350 1 13.551743116802745 13.459938822623158 16.503816448160883 0 0 0
473 1 20.302256330345944 14.894584344905926 17.604857892990744 0 0 0
478 1 19.049703789890817 13.71315212661199 16.24787314617341 0 0 0
127 1 1.2041100308621238 17.748008031752114 17.46059459748932 0 0 0
252 1 5.38468978880044 16.4472449847359 16.250906197670925 0 0 0
255 1 6.652458226394603 17.585662572924214 17.669498951597742 0 0 0
380 1 10.748124460212466 16.231525261896888 16.264411275877386 0 0 0
383 1 12.056032318165704 17.651867289339748 17.66052584338844 0 0 0
508 1 16.408072783530706 16.453560095616858 16.333607913310672 0 0 0
511 1 17.65088424272215 17.741840132608313 17.61791535594385 0 0 0
124 1 21.630622683926216 16.326351583902202 16.166821034196975 -1 0 0
126 1 2.7313124881848427 19.20595425888896 16.22389738020477 0 0 0
156 1 5.381375216041142 0.057569243843843765 16.352830353726848 0 0 0
121 1 3.9753594722892425 20.458911692608897 17.796671407042446 0 0 0
254 1 8.115026675011078 19.174782553567475 16.314333904188558 0 0 0
284 1 10.698952065611111 0.08042867098532014 16.158602800821008 0 0 0
249 1 9.378065574547625 20.570298438127566 17.60153636109522 0 0 0
377 1 14.854837466103227 20.257139700679268 17.851330782764826 0 0 0
382 1 13.594712202502159 19.003488347742145 16.398890016655468 0 0 0
28 1 21.727293744654904 0.11195600347785373 16.461060649535323 -1 0 0
510 1 18.995501131717834 19.083204595625403 16.279197061705194 0 0 0
505 1 20.251186030920913 20.479525034962993 17.78773314258999 0 0 0
132 1 5.620473107693099 21.716755700546198 0.1530964036422553 0 -1 0