LAMMPS data file via write_data, version 10 Sep 2025, timestep = 10000000, units = metal

513 atoms
1 atom types

0 21.77481 xlo xhi
0 21.77481 ylo yhi
0 21.77481 zlo zhi

Masses

1 28.085

Atoms # atomic

7 1 1.4249802898876431 1.2664655606801016 1.4026535265241498 0 0 0
2 1 0.06528878886062373 2.7517476587787812 2.872237312996365 0 0 0
135 1 7.314482529455634 0.9574245591250117 0.966002766497624 0 0 0
134 1 8.41114416454173 2.794923966676819 21.71962177543685 0 0 -1
258 1 10.828877874584439 2.995724322033415 2.744152808280556 0 0 0
263 1 12.189568268489182 1.437188499536144 1.5204724154763414 0 0 0
260 1 11.040930708092938 0.037362580200660744 21.65563850707047 0 0 -1
386 1 16.3816291013401 2.8887988986092203 2.661340616692761 0 0 0
391 1 17.710232806989822 1.3221120012254823 1.244466549383359 0 0 0
392 1 18.956042210189008 0.14047313172507714 2.6612399153242956 0 0 0
40 1 2.6740213330937648 5.531726332436087 2.820494302463643 0 0 0
1 1 4.139216126050295 4.0150483677496185 1.4420288599875888 0 0 0
168 1 8.172981502035743 5.673509100066396 2.736188118012784 0 0 0
129 1 9.58758611483266 4.337193550702402 1.2569853945509273 0 0 0
292 1 11.097239306312131 5.590529643481563 21.639228662633503 0 0 -1
257 1 15.002812675921948 4.21526314913274 1.2878675754074607 0 0 0
296 1 13.781860109194863 5.420902032511671 2.988511718490371 0 0 0
385 1 20.460005783766185 3.91490155181298 1.449103942816026 0 0 0
424 1 19.127081081131433 5.5101585203009416 2.665888211316 0 0 0
39 1 1.33886876491606 6.779613388829651 1.4416622172426135 0 0 0
38 1 2.628117887071949 8.087637897900994 21.752777670017814 0 0 -1
34 1 0.017536440729711167 8.147311484396525 2.891221399329091 0 0 0
162 1 5.338168521161715 8.08612275708517 2.6610218723326056 0 0 0
33 1 4.057922314365695 9.510157691664435 1.1823328856034552 0 0 0
167 1 6.850013759499958 6.86358064515661 1.3322713588510884 0 0 0
290 1 11.02284828475528 8.318960671997052 2.8264309569932506 0 0 0
295 1 12.4186469657347 6.778663378596365 1.5602835671098148 0 0 0
294 1 13.758337959439036 8.168493563497641 0.12313011635657689 0 0 0
418 1 16.282206314556273 8.341596020189526 2.593629867683497 0 0 0
423 1 17.617961576441378 6.749850345074466 1.3876849691454762 0 0 0
422 1 19.01901221507358 8.146673863448845 21.73941449657018 0 0 -1
72 1 2.753298998910156 10.757809711184397 2.6997008689827795 0 0 0
71 1 1.3421492606181047 11.959264581797589 1.3384698836900157 0 0 0
196 1 5.3856769783857965 10.86846404459354 0.06471309179433504 0 0 0
200 1 8.172733681732117 10.737610750976442 2.6210246215659776 0 0 0
199 1 6.744945073953612 12.394857054227252 1.3678966231511724 0 0 0
161 1 9.619415306125555 9.478164112782693 1.3845155397541775 0 0 0
327 1 12.214971916051525 12.29326865248384 1.2501172974950672 0 0 0
324 1 10.92936724154508 10.87729083779992 21.762474199603226 0 0 -1
289 1 15.099210741668808 9.608016589704635 1.2173510044486795 0 0 0
328 1 13.557983372395592 10.886541561024764 2.458848802033599 0 0 0
455 1 17.52032292025948 12.436516554079416 1.2979441091728685 0 0 0
452 1 16.36014472010187 11.111368018766214 21.65125273405056 0 0 -1
417 1 20.373848664729632 9.473247446630626 1.4412756500213395 0 0 0
456 1 18.88672382355721 10.929519548419082 2.5794276626815407 0 0 0
70 1 2.6708120704357974 13.447614613455395 0.017492669905202263 0 0 0
65 1 3.842596829950756 15.069250701162144 1.3276808732058223 0 0 0
194 1 5.429507833091308 13.776068615654355 2.747890707849276 0 0 0
193 1 9.412687224340205 15.009066481074743 1.4972223909868 0 0 0
322 1 10.896091665324555 13.569931539548197 2.6772513460906437 0 0 0
321 1 14.780363093570944 14.979073262062588 1.1241049691701426 0 0 0
450 1 16.229905773634986 13.783454287877419 2.672183007741324 0 0 0
66 1 0.03090158158823369 13.496805674868273 2.6011019190646723 0 0 0
449 1 20.386297774509277 14.797122564762212 1.247444549307132 0 0 0
103 1 1.15309941739834 17.841116559043055 1.3640533380184807 0 0 0
104 1 2.655867096089108 16.556100889085393 2.6001470246144898 0 0 0
231 1 6.666690718237906 17.77722184723813 1.3083289349713632 0 0 0
232 1 7.9220905698206705 16.334597574060165 2.6817666076921234 0 0 0
359 1 12.210766676509126 17.577724039572896 1.476507104304403 0 0 0
360 1 13.47007863073911 16.187008228102858 2.635419774227461 0 0 0
487 1 17.647792498231798 17.677272681820106 1.3834107425615674 0 0 0
484 1 16.32924417361306 16.38515933892596 21.740202201464193 0 0 -1
488 1 19.07218397066269 16.23355235022213 2.654686575766236 0 0 0
8 1 2.7633357081338517 0.12395664858738115 2.7985712219145578 0 0 0
97 1 3.9720992414018976 20.422848781418868 1.211015421224329 0 0 0
226 1 5.44061097856545 19.235187671471003 2.6080181826907145 0 0 0
225 1 8.835206477710281 20.976248077348544 0.8349076995246641 0 0 0
354 1 10.882490881887968 19.080817989842988 2.701149061445157 0 0 0
264 1 13.628148238570462 0.03849656473595291 2.717247677219515 0 0 0
353 1 15.019891091976765 20.323658906562873 1.2437054961347498 0 0 0
358 1 13.79151497046297 18.949371370036157 21.74110641448077 0 0 -1
482 1 16.24378765151789 18.93689834355099 2.7207517727728745 0 0 0
388 1 16.28924762316357 21.64750957079664 21.67622321692637 0 -1 -1
98 1 21.72157863480916 19.050363018748037 2.7481650407182845 -1 0 0
481 1 20.429214692078663 20.406697896292417 1.3809187042607778 0 0 0
486 1 19.053836146458536 19.079391689930947 0.12353749245718504 0 0 0
14 1 2.6374552840076326 2.7777956854109602 5.5800825422940825 0 0 0
12 1 0.09663128956715639 21.713476787250343 5.549645075575972 0 -1 0
3 1 3.936778713467397 1.5059019905025581 4.1834887958018845 0 0 0
140 1 5.248911531154625 0.1938138557891238 5.568123196222892 0 0 0
513 1 7.13804112103493 1.2619231415095153 3.1862887415523415 0 0 0
142 1 8.128439256130418 3.061877037242395 5.612138078375273 0 0 0
131 1 9.420942280910142 1.8021709620602457 4.114266535203275 0 0 0
268 1 10.81320249350264 21.74814270907188 5.25726175725088 0 -1 0
259 1 15.018769641163843 1.5634292631070175 4.072862223431668 0 0 0
270 1 13.728003667449501 2.878831980884894 5.487562352125089 0 0 0
396 1 16.43889346997061 0.06300818459687585 5.258123974502319 0 0 0
387 1 20.575264557627598 1.4332979209787338 4.116424931036285 0 0 0
398 1 19.163288061357235 2.84887507658296 5.285316214768293 0 0 0
5 1 1.3147116430108987 4.002438543732838 4.189731617742749 0 0 0
130 1 5.536194469617299 2.9137147346033694 3.1339158278363253 0 0 0
172 1 5.52153446455617 5.541419920645717 5.58975875388462 0 0 0
133 1 6.797130707774886 4.54807402910156 4.178690922783535 0 0 0
300 1 10.911040292080525 5.594369890615113 5.4113823842747655 0 0 0
261 1 12.139657725437688 4.188191046333567 4.161368167799179 0 0 0
389 1 17.633250415701955 4.279329186670666 4.096541015345578 0 0 0
428 1 16.210555292527097 5.610077896743823 5.554923667104722 0 0 0
44 1 21.71686312364624 5.486792551427804 5.454847625638682 -1 0 0
46 1 2.7900290169390614 8.198563835334292 5.647978692296593 0 0 0
35 1 4.1130908956284875 6.857422357828837 4.25775895082647 0 0 0
174 1 8.274133490953345 8.292773644061318 5.425868151038105 0 0 0
163 1 9.555703139341917 6.946453099229938 3.9707764877228264 0 0 0
291 1 15.079508007085543 6.992315580009537 4.103746859689349 0 0 0
302 1 13.729355105617612 8.249872733908354 5.514627410615464 0 0 0
419 1 20.225316546479736 6.778890846180743 4.058700041876852 0 0 0
430 1 19.092866550502002 8.209927376425117 5.417230291429586 0 0 0
37 1 1.3810604563174596 9.508448970519527 4.188072397732464 0 0 0
204 1 5.420264857736083 11.041822658883122 5.382013626151291 0 0 0
67 1 3.931133488958894 12.34827324945751 4.064078690246133 0 0 0
165 1 6.631924864927748 9.440801589817177 4.005060380041154 0 0 0
195 1 9.295291086050215 12.276404316211643 4.066515284179922 0 0 0
332 1 10.833248805670648 10.962299256292305 5.392406867280657 0 0 0
293 1 12.269898965014232 9.689876977710691 4.152191423564289 0 0 0
323 1 14.886398091124393 12.360850610365157 3.981411895886569 0 0 0
421 1 17.506947631689872 9.704905822889483 4.010512479720914 0 0 0
460 1 16.19753282154535 10.945247139506364 5.385184403202392 0 0 0
76 1 21.687655954804594 11.007373443447158 5.448953957853115 -1 0 0
451 1 20.4256498208274 12.196988454798968 3.774502860823118 0 0 0
69 1 1.4090479839750873 14.870140898119233 3.710547384539578 0 0 0
78 1 2.562363974464339 13.751579524125482 5.303765903055393 0 0 0
197 1 6.7956434299985915 15.076188160269355 4.398499135422498 0 0 0
206 1 8.146241568008238 13.69510610754922 5.607856303601235 0 0 0
325 1 12.22676454236108 14.906057665314192 4.037341133903356 0 0 0
334 1 13.639686342554436 13.64631374091891 5.384896139994957 0 0 0
453 1 17.674796898915336 14.988927271970796 4.133724791396155 0 0 0
462 1 19.086335718643284 13.5215789628468 5.278047100391003 0 0 0
99 1 4.063979291780179 17.84095510556475 4.016242633341215 0 0 0
236 1 5.140306222429913 16.47827760893366 5.422808031299946 0 0 0
227 1 9.41607876025139 17.828762802307903 3.9372184896095583 0 0 0
364 1 10.847565081167687 16.54017455822215 5.477605903208221 0 0 0
355 1 14.898570825416956 17.626957917403455 4.0526706779197665 0 0 0
492 1 16.372745064055792 16.3149852468989 5.549739747140051 0 0 0
108 1 0.09665699146401219 16.153691462237074 5.275820760523065 0 0 0
483 1 20.480994220517932 17.64291977311449 3.933133550380788 0 0 0
110 1 2.689561433140533 19.160735224745117 5.367229223178218 0 0 0
101 1 1.365884508561646 20.43425112924504 4.062923009270956 0 0 0
136 1 9.262646838847983 20.946384894874754 3.1288254754187155 0 -1 0
229 1 6.660173300873701 20.69730171177359 4.044349226973645 0 0 0
238 1 8.091324179956436 19.154120389056732 5.312964165286485 0 0 0
357 1 12.405664993830799 20.334617067556948 4.193695019483001 0 0 0
366 1 13.713041572869576 19.006132678929646 5.500087593266006 0 0 0
485 1 17.652039182464303 20.362429352084114 3.8146202720644973 0 0 0
494 1 19.065690427984258 19.122142462245762 5.23933537651751 0 0 0
15 1 1.3987449633506395 1.3506335559224876 6.801643825802087 0 0 0
138 1 5.4560619689194905 2.5833017949857258 8.355648319915343 0 0 0
143 1 6.816763942336688 1.6377326448522178 6.725435613169856 0 0 0
144 1 8.203944991979524 0.12281252757230357 8.034364058136354 0 0 0
266 1 10.881409329373389 2.7769892582409144 8.205383764216538 0 0 0
271 1 12.17386784867476 1.2309801559392233 6.835855731067452 0 0 0
272 1 13.700866583400172 0.10498735751749277 8.138301936154752 0 0 0
394 1 16.31545706510175 2.775334173049992 8.120845939877615 0 0 0
399 1 17.869222048575764 1.4301225667297321 6.621666175816256 0 0 0
10 1 21.764617541925315 2.723766977257927 8.158207249847456 -1 0 0
400 1 18.90917061507042 0.0035217235541296077 8.142424225764438 0 0 0
48 1 2.7473151471107737 5.478957587668305 8.202822502828367 0 0 0
9 1 4.158039300691706 4.056273138630508 6.898927400951929 0 0 0
176 1 8.277523658089509 5.636206155687204 8.225738839848743 0 0 0
137 1 9.622149610533452 4.298524795700237 6.846114087310467 0 0 0
265 1 14.838425766584553 4.250013465053259 6.98497496651159 0 0 0
304 1 13.468059893456445 5.479767938029005 8.255953415111968 0 0 0
393 1 20.31658395344619 4.089032555606314 6.852394379443361 0 0 0
432 1 19.082023600367172 5.477673345833284 8.272080181307386 0 0 0
47 1 1.4174506389794737 6.773736096337888 6.959592074507754 0 0 0
42 1 0.10284176645708243 8.114641611212067 8.232778841986674 0 0 0
170 1 5.532107781881902 8.452916337342172 8.217868593190527 0 0 0
175 1 6.89577618682145 7.061659796572632 6.796536211665397 0 0 0
298 1 10.962314708040973 8.16192237931962 8.29267972250288 0 0 0
303 1 12.384407488500436 6.938762313928909 6.731878443112153 0 0 0
426 1 16.241976816113002 8.203221442778908 8.205720920505694 0 0 0
431 1 17.62585125808245 6.908204948636662 6.794102056109167 0 0 0
80 1 2.661793113579722 10.960761244991922 8.233874660680655 0 0 0
79 1 1.3266848633871688 12.295933255833672 6.691880056119292 0 0 0
41 1 4.246110489916057 9.725334605826339 6.856623739301031 0 0 0
208 1 8.311394831173809 11.040278592579755 8.189678148783768 0 0 0
207 1 6.770446275822885 12.332711823533021 6.947037562445213 0 0 0
173 1 7.04981851577455 9.564931493930345 9.527300944064752 0 0 0
169 1 9.665698108611728 9.576901617150689 6.786453694886715 0 0 0
297 1 14.926993806368355 9.660104831264086 6.960110841749002 0 0 0
336 1 13.421756798820665 10.979347859422747 8.281498267336277 0 0 0
463 1 17.74154483149172 12.192296363466516 6.423181514547594 0 0 0
425 1 20.59011916441137 9.478510083643947 6.829122354176783 0 0 0
464 1 18.926534674865945 10.694463765067054 7.9175282656427 0 0 0
73 1 3.8176985204421685 15.148557326625259 6.8645829337018345 0 0 0
202 1 5.251255778666176 13.666065292144996 8.180220155106625 0 0 0
335 1 12.232769970317408 12.253129123106572 6.746260202184414 0 0 0
201 1 9.484689471043815 15.166132214310883 6.991492314585914 0 0 0
330 1 10.754431887406097 13.566837256334777 8.151741122653053 0 0 0
329 1 14.908773900399204 14.912414538502338 6.7628171359170635 0 0 0
458 1 16.416580253887087 13.379051106778938 8.092828935752024 0 0 0
74 1 21.68560366271493 13.531611604772094 8.120191256169349 -1 0 0
457 1 20.42814123741819 14.808910221345123 6.602374174584507 0 0 0
111 1 1.2272375379607419 17.765078242427183 6.716120175179042 0 0 0
112 1 2.4870107304008027 16.399193443290848 8.178602496050308 0 0 0
239 1 6.786905375774702 17.68694763038624 6.691987318554697 0 0 0
240 1 7.994398608702967 16.334577416561725 8.268421029224983 0 0 0
367 1 12.364088890376852 17.725927154192963 6.855944114915436 0 0 0
368 1 13.618611800231726 16.25110215170792 8.140419490996626 0 0 0
495 1 17.747919737396764 17.77453216171569 6.745536672953199 0 0 0
496 1 19.25674356713729 16.290847738907164 7.9573252498107445 0 0 0
16 1 2.578243647612047 21.637904459647558 8.292170505912402 0 -1 0
106 1 21.600492628379897 18.8048933246073 8.177668806303817 -1 0 0
105 1 4.0216405639324275 20.40238336614237 6.946593330101551 0 0 0
234 1 5.6236408848856785 19.02219243176655 8.27089175218406 0 0 0
233 1 9.505164607132203 20.430288358854057 6.759083587909491 0 0 0
362 1 10.987023187742196 19.009942738680827 8.208907162075814 0 0 0
361 1 15.098324627455272 20.592975776051617 6.736898734210479 0 0 0
490 1 16.356555223006087 19.045873119421046 8.1427528949746 0 0 0
489 1 20.345356080653097 20.43861503885811 6.819613232380479 0 0 0
22 1 2.687926266560642 2.606116293541944 11.015655006012453 0 0 0
23 1 1.238237054768894 1.3180704891156358 12.372463324810305 0 0 0
11 1 3.998506320974817 1.298225764361366 9.648108490322262 0 0 0
150 1 8.417534361581028 2.885859511546158 10.933723680056728 0 0 0
151 1 6.705866691854559 1.5211678583403014 12.165028697679777 0 0 0
139 1 9.72835342485138 1.197311271259671 9.581459217630881 0 0 0
279 1 12.139650057501552 1.4943340740621853 12.269437838517197 0 0 0
267 1 15.103870386505964 1.4661639561202613 9.617034851659382 0 0 0
278 1 13.62780266892111 2.649220243898862 10.998584632585462 0 0 0
407 1 17.756439601311115 1.5562937180171839 12.292088076156988 0 0 0
395 1 20.18316660629808 1.3787056733678733 9.509239696940543 0 0 0
406 1 19.021060535250772 2.9757222072822005 10.776261825905856 0 0 0
13 1 1.4089013816344473 4.0221033694285 9.668530137481255 0 0 0
180 1 5.363905946968482 5.482113634682551 10.810679857664276 0 0 0
17 1 4.0264408733399355 3.9409861846593306 12.33152387409833 0 0 0
141 1 6.961493868151731 4.1588828201044965 9.617471322059505 0 0 0
145 1 9.669865900877307 4.304073259956658 12.34564252665287 0 0 0
308 1 11.09713164282465 5.400903344062818 10.909048254279664 0 0 0
269 1 12.300729328851565 3.9737488534839174 9.64251732721689 0 0 0
273 1 14.90089620737441 4.106700313173988 12.350368040369473 0 0 0
397 1 17.658838571076398 4.211051719123666 9.442508604240455 0 0 0
436 1 16.183551349373136 5.573854301907714 10.79172311963508 0 0 0
52 1 0.17392393257652472 5.393701569370684 10.99646775678881 0 0 0
401 1 20.324515724552256 4.210551128901057 12.170375412597869 0 0 0
54 1 2.729164476158774 7.948934772491626 10.907222838119722 0 0 0
55 1 1.3348351776099074 6.779496684362185 12.37751466478725 0 0 0
43 1 4.192466051483389 6.9007642118989905 9.393076300645447 0 0 0
182 1 8.281684384626638 8.192033502180145 11.04342105724083 0 0 0
183 1 6.828634062499573 6.778492148178046 12.178042418501398 0 0 0
171 1 9.643313089510457 6.869367024355739 9.77644502991641 0 0 0
311 1 12.25154835098028 6.731241038206941 12.438214184989732 0 0 0
299 1 14.842695863865156 6.964245888499499 9.570008345955648 0 0 0
310 1 13.524683330328067 8.093191705205017 11.190964040017924 0 0 0
439 1 17.69064979791994 6.772929357569204 12.124755836007031 0 0 0
427 1 20.503598548159086 6.754980126733404 9.779188877406439 0 0 0
438 1 18.918024702889166 8.058335652382532 10.77828841002496 0 0 0
45 1 1.357939650030947 9.59991102922894 9.50267168828414 0 0 0
87 1 1.1954515662822531 12.16937042040868 12.07689453580064 0 0 0
49 1 4.130201677745593 9.344688535321067 12.25038823457387 0 0 0
212 1 5.4953354844955316 10.68359179247212 10.843873560579953 0 0 0
75 1 4.011704310498823 12.24462792532706 9.658423504961176 0 0 0
215 1 6.757179329289384 12.156919473113515 12.18431999280739 0 0 0
203 1 9.565220986667203 12.228884987904063 9.679817186223751 0 0 0
177 1 9.595214422463256 9.355815964069356 12.376593236513683 0 0 0
301 1 12.286262909059717 9.490997078898223 9.847832416627195 0 0 0
340 1 10.881078997799712 10.925052973366977 11.062557670880494 0 0 0
343 1 12.292548693226838 12.281314100068808 12.436056064165989 0 0 0
331 1 14.924480567769836 12.334540519846419 9.485692410094831 0 0 0
305 1 14.942509671406226 9.538394053247195 12.31968062919479 0 0 0
429 1 17.643177111230735 9.541905930702402 9.522869426353463 0 0 0
468 1 16.190999691315668 11.060697466821173 10.866994682635378 0 0 0
471 1 17.65229071488347 12.132625249234206 12.20434375229668 0 0 0
84 1 21.54390623316388 10.897370574196351 10.725513154772797 -1 0 0
459 1 20.158976016935505 12.206542932113424 9.420054754504054 0 0 0
433 1 20.225918390575764 9.566183575539279 12.158320990739709 0 0 0
77 1 1.3337152802791465 14.760670836738836 9.552891571522702 0 0 0
86 1 2.76789511152513 13.590049865448824 11.001773212807356 0 0 0
81 1 4.051514774013714 14.901741689242849 12.41019495192244 0 0 0
205 1 6.684639635834432 14.769947341268336 9.472205290135523 0 0 0
214 1 8.01829249233264 13.533696055162418 10.785283350811039 0 0 0
333 1 12.164522800275469 14.949944480901715 9.421268284573458 0 0 0
209 1 9.438868452790345 14.986795110989856 12.055882119722556 0 0 0
342 1 13.388600342956574 13.648008926317392 10.916484348891766 0 0 0
337 1 14.96407165108212 15.000353767888752 12.18102698374248 0 0 0
461 1 17.767077914648524 14.88175476417655 9.387414406540277 0 0 0
470 1 18.889965152761974 13.644657779376143 10.804484800927655 0 0 0
465 1 20.332597835752868 14.863973985905666 12.347238931740344 0 0 0
119 1 1.6057745019791805 17.462249378035214 12.257354145811256 0 0 0
107 1 4.0302430471590585 17.688733341723076 9.450939042788155 0 0 0
244 1 5.263148974350474 16.258229664854888 10.786913631708767 0 0 0
247 1 6.637954357641613 17.525300393240364 12.043574972325635 0 0 0
235 1 9.39388341120337 17.71717294302241 9.44359631522017 0 0 0
372 1 10.80639837295015 16.34934301765484 10.834484748351283 0 0 0
363 1 15.022855487410412 17.64211608566146 9.562131907414656 0 0 0
500 1 16.306652028341087 16.32456997276527 10.918825405098575 0 0 0
503 1 17.50063780818427 17.72051182484346 12.302690829507652 0 0 0
116 1 0.0608324295033178 16.11171311028237 11.076010391869774 0 0 0
491 1 20.45251343251636 17.410887180350116 9.66580870796843 0 0 0
118 1 2.6157427265695667 19.01688832042965 10.783743712567267 0 0 0
109 1 1.1263819821349363 20.18441066159845 9.466691458680064 0 0 0
148 1 5.473474414051754 0.04034906274168663 10.896564295758207 0 0 0
113 1 3.916198970255099 20.338032874703494 12.167313152775753 0 0 0
237 1 6.930913188818639 20.461297351139248 9.384301934922295 0 0 0
246 1 8.20806922734142 19.012513742258427 10.929482056731128 0 0 0
241 1 9.363493877514403 20.402613590970883 12.312456601060148 0 0 0
276 1 10.9800906400834 21.672613724153756 11.009138009948016 0 -1 0
365 1 12.419024809684647 20.466432707276752 9.52830930259349 0 0 0
374 1 13.650429966526078 19.097519747189672 11.017630569414905 0 0 0
369 1 15.019198438608356 20.29922614846353 12.410258868064789 0 0 0
404 1 16.334652200983385 0.035031623598683836 11.036075608039342 0 0 0
493 1 17.72393527687275 20.318100676903555 9.60091337484841 0 0 0
20 1 21.64397887319031 21.766370885036196 10.919845356967532 -1 -1 0
502 1 19.179750985793962 18.841759992629584 10.994190734688814 0 0 0
497 1 20.428313909501906 20.230131091080548 12.339970794509172 0 0 0
24 1 2.708490482506188 21.69881894887173 13.571131095023894 0 -1 0
18 1 21.66573457244968 2.808391521982507 13.661575797170512 -1 0 0
19 1 4.185013574553015 1.2058796403970733 14.686007704365322 0 0 0
146 1 5.465241312125725 2.80506696137529 13.556968568229145 0 0 0
152 1 8.017325120554833 0.12690164603002937 13.505762817692482 0 0 0
147 1 9.395089901109365 1.4226296487713999 14.948510458946028 0 0 0
274 1 10.719693743392321 2.8236523308086694 13.618035462870102 0 0 0
275 1 15.028606729671914 1.3351609802527011 15.023557184843288 0 0 0
402 1 16.34197952224892 2.609769139142533 13.715719379175773 0 0 0
403 1 20.33894546370742 1.3237222167138056 15.082161876236842 0 0 0
21 1 1.3652815791899287 3.98883774912531 15.191349520628824 0 0 0
56 1 2.6238095076634274 5.222573971495797 13.604600052282557 0 0 0
149 1 6.643744809419541 4.2309560333153 14.942149845545549 0 0 0
184 1 8.276305458278216 5.544514634969711 13.573647254920775 0 0 0
277 1 12.318274382166733 3.9962035799510374 14.913721693574315 0 0 0
312 1 13.588386480503546 5.388362550113485 13.728748781045843 0 0 0
405 1 17.747601977851907 4.040000342562594 15.001566322945518 0 0 0
440 1 19.126936638033104 5.480113914757216 13.584901115883637 0 0 0
51 1 3.9828951106572292 6.657160354461999 14.857785721957306 0 0 0
178 1 5.538440997878777 8.134240622487122 13.521958354485708 0 0 0
179 1 9.587421697709976 6.7406928781629905 15.199052357364423 0 0 0
306 1 10.950730392266653 8.069873754748112 13.72435801025036 0 0 0
307 1 14.888427591164065 6.919056809230164 15.080790457319996 0 0 0
434 1 16.25589037252934 8.033694943193293 13.653886774805654 0 0 0
50 1 21.524195579610016 8.218479703541979 13.654866487812006 -1 0 0
435 1 20.425363528879533 6.761434736832038 14.909696219348342 0 0 0
53 1 1.491265443734015 9.334135596050345 14.904900299675358 0 0 0
88 1 2.7138407980168378 10.79300394848461 13.507746885922192 0 0 0
83 1 4.051708531421809 12.23497881266626 15.070287212557979 0 0 0
181 1 6.837357854821815 9.475953853384556 14.93253552161389 0 0 0
216 1 8.243639795128361 10.899473589559706 13.621286086502224 0 0 0
309 1 12.135748587355772 9.516237377971233 14.990563002530491 0 0 0
211 1 9.432093869706364 12.224764036301634 14.904235777084438 0 0 0
344 1 13.598854481614612 10.999848799388483 13.76507453062028 0 0 0
339 1 15.074887029212478 12.24000811623387 15.138582527811383 0 0 0
437 1 17.64063029833518 9.46177055958105 15.062200318225198 0 0 0
472 1 18.968353801643612 10.967476406185272 13.627214137233542 0 0 0
467 1 20.594255090012727 12.159280408452153 14.989396398546829 0 0 0
85 1 1.2769881729535308 14.89239990243207 15.237518474375342 0 0 0
210 1 5.3615257709446285 13.460735044327683 13.729597474340204 0 0 0
213 1 6.751196211700587 15.012922632254064 14.91340768260235 0 0 0
338 1 10.757321986923005 13.63519458976723 13.472409047569025 0 0 0
341 1 12.105954515924788 14.888922409018097 14.811784611940661 0 0 0
466 1 16.25589489215367 13.617430230971518 13.579268997992322 0 0 0
469 1 17.68174785650051 14.965116087059153 14.925464867973982 0 0 0
82 1 0.09231304778366933 13.637331800475126 13.72006459728385 0 0 0
120 1 2.757777273378619 16.150346460332013 13.769404272888838 0 0 0
115 1 4.162608562486174 17.495293601391822 14.95013750958784 0 0 0
248 1 8.03041470102493 16.228613812213382 13.432408678304242 0 0 0
375 1 12.186523513550808 17.68812121637771 12.160855758585269 0 0 0
243 1 9.496409459850009 17.654742938001583 14.79681735457228 0 0 0
371 1 14.86841590147128 17.64465614186065 15.183904743620763 0 0 0
376 1 13.5057689568755 16.25810525733316 13.447847197063643 0 0 0
499 1 20.407755167278143 17.594963693979363 14.82939048349796 0 0 0
504 1 18.992578622349292 16.208137905271528 13.588664133515056 0 0 0
117 1 1.292581074630153 20.52082521759736 14.957734916477802 0 0 0
242 1 5.4570584284297095 18.936450749147948 13.474736310165017 0 0 0
245 1 6.7279073065490795 20.489157395090494 14.689446901825232 0 0 0
370 1 10.846123539906174 19.06363481281827 13.54961546463399 0 0 0
373 1 12.168917747555193 20.50271338676584 14.792244967971556 0 0 0
280 1 13.729041135364008 0.13339409888549625 13.550059192565692 0 0 0
498 1 16.377215430384513 18.98508307505197 13.895185940726693 0 0 0
501 1 17.829772448616264 20.351786902313048 15.057479988712029 0 0 0
408 1 19.137992049368002 0.052748471761137936 13.584818404938366 0 0 0
114 1 0.135797627627948 18.84974756676664 13.684395985557755 0 0 0
30 1 2.945187552083612 2.576874984624993 16.388334830266658 0 0 0
31 1 1.4487463331889128 1.3612917046885749 17.747453603268873 0 0 0
156 1 5.609680628949309 21.679398184813007 16.128212282118806 0 -1 0
158 1 8.249873919443235 3.138812125999427 16.297703722691733 0 0 0
159 1 6.746187221621763 1.652602412686001 17.582895400513067 0 0 0
287 1 12.248456855086522 1.393343471473207 17.5181768929039 0 0 0
286 1 13.672628450553358 2.821454774081177 16.349547162402597 0 0 0
415 1 17.793924034113733 1.3766847409733518 17.795010443790126 0 0 0
412 1 16.419649404517397 0.003488271659186637 16.39273652595454 0 0 0
414 1 19.070323515549198 2.805702652076525 16.45209873751866 0 0 0
60 1 0.1202987145923091 5.368599067677321 16.436113877334712 0 0 0
25 1 3.974332885482939 4.169293756169977 17.740762903361286 0 0 0
188 1 5.167846882132952 5.3867459856956845 16.17551970477463 0 0 0
153 1 9.546080244497793 4.25051274924099 17.721900596977463 0 0 0
316 1 11.009657939655835 5.400282885400084 16.5029823630884 0 0 0
281 1 15.005820818819656 4.151290666580755 17.750889745814177 0 0 0
444 1 16.305121247381962 5.59829456704552 16.322711866888287 0 0 0
409 1 20.60666848756467 4.009475336246648 17.77868450624022 0 0 0
62 1 2.823825756307032 8.118463647284495 16.3817425155786 0 0 0
63 1 1.4159555182798753 6.8516962347614765 17.735131374127487 0 0 0
190 1 8.038785014462022 8.031085590028976 16.255433589208593 0 0 0
191 1 6.581299083550452 6.772336660986542 17.66763338389248 0 0 0
319 1 12.24723038593687 6.958097400402253 17.77095247749897 0 0 0
318 1 13.715448380391697 8.381205695989772 16.406159505612024 0 0 0
447 1 17.651693258219055 6.674796874501775 17.87518315598013 0 0 0
446 1 19.054191136791005 8.087353415377066 16.404431084266328 0 0 0
441 1 20.44534578498545 9.605884393975016 17.64766707207543 0 0 0
95 1 1.343573505847802 12.199113313786464 17.80826025151624 0 0 0
57 1 4.0601564592611625 9.50324812224146 17.718604692703202 0 0 0
220 1 5.566821027441542 10.792617202785165 16.304941994019114 0 0 0
223 1 6.831164670105835 12.086874674638274 17.705949337027334 0 0 0
185 1 9.449619845763952 9.473006244725338 17.60756364094617 0 0 0
348 1 10.960757723482132 10.908350626310826 16.29196601384887 0 0 0
351 1 12.238236467033168 12.319406033731017 17.851242842994548 0 0 0
313 1 15.011185237412176 9.56621437811571 17.7923520428586 0 0 0
476 1 16.372712470687887 10.891598672027996 16.470166120937602 0 0 0
479 1 17.811559172861305 12.192473534294066 17.674152413150516 0 0 0
92 1 0.2600345164826092 10.934571189311445 16.273809380452015 0 0 0
94 1 2.588446042552444 13.51428605539396 16.443761587669968 0 0 0
89 1 4.026995188010383 14.753258480225915 17.780257870759268 0 0 0
222 1 8.030667065334034 13.565461943171023 16.31453512974234 0 0 0
217 1 9.493706974006779 14.935614955433781 17.53453356506525 0 0 0
345 1 14.899399715020376 15.072720495538743 17.63595216105697 0 0 0
350 1 13.689885483674939 13.713207863699449 16.440219631591727 0 0 0
473 1 20.362110673406924 14.81240206244757 17.810099059888454 0 0 0
478 1 19.043290274821263 13.477645638982278 16.364924654265277 0 0 0
127 1 1.3167548984370854 17.717867625156025 17.679644102167387 0 0 0
124 1 21.671688797083178 16.246578098089497 16.384452071240872 -1 0 0
252 1 5.478117550573681 16.211291406545783 16.488745218310484 0 0 0
255 1 6.854833878754035 17.745721668241863 17.565274355592962 0 0 0
380 1 10.76150265937064 16.270566831343697 16.211755297106073 0 0 0
383 1 12.180934666292517 17.66263398766866 17.55862919649603 0 0 0
508 1 16.486767130466973 16.28151574262289 16.331430563529704 0 0 0
511 1 17.782402771051846 17.68780644323949 17.580947075713716 0 0 0
126 1 2.6657683844535103 19.027925846735243 16.21106383302497 0 0 0
28 1 0.014732325476170871 21.67757026145742 16.451022755423114 0 -1 0
121 1 4.040080515303839 20.441644116024452 17.531956119392845 0 0 0
254 1 8.00249452406658 18.90359505409503 16.055525891632264 0 0 0
284 1 10.811370887811698 0.03978560592625868 16.243259598318954 0 0 0
249 1 9.462519220128208 20.223563005278773 17.440216068999476 0 0 0
377 1 15.110120980378726 20.41305858190882 17.79352244915785 0 0 0
382 1 13.536618218255942 19.273200767791625 16.423729812340753 0 0 0
505 1 20.548529282916746 20.373166484676652 17.925143394725133 0 0 0
510 1 19.340285255745425 19.070816564199205 16.37887804496844 0 0 0
6 1 2.695223531488177 2.6250116841084514 0.08329191004638331 0 0 0
26 1 21.762570210843055 2.6234712486856044 19.18836275152402 -1 0 0
27 1 4.143366516110002 1.462603598834317 20.390766902590915 0 0 0
154 1 5.34068208073659 2.8638513199341977 18.968968928099223 0 0 0