LAMMPS (10 Sep 2025)
OMP_NUM_THREADS environment is not set. Defaulting to 1 thread.
  using 1 OpenMP thread(s) per MPI task
Loaded 1 plugins from C:\Users\lmike\AppData\Local\LAMMPS 64-bit 10Sep2025 with GUI\plugins
# LAMMPS input generated from LammpsInputFile with pymatgen v2025.10.7

# STYLES
units metal
atom_style atomic

# SET UP CALCULATION
read_data starting_config.dat
Reading data file ...
  orthogonal box = (0 0 0) to (21.763403 21.763403 21.763403)
  1 by 1 by 1 MPI processor grid
  reading atoms ...
  513 atoms
  read_data CPU = 0.003 seconds
pair_style sw
pair_coeff * * Si.sw Si
Reading sw potential file Si.sw with DATE: 2007-06-11
velocity all create 800 6670999

# CALCULATION PARAMETERS
fix f1 all nvt temp 800.0 800.0 $(100.0*dt)
fix f1 all nvt temp 800.0 800.0 0.10000000000000000555
thermo 100000
thermo_style custom step temp press spcpu cpuremain

# RUN CALC AND WRITE OUTPUTS
dump d1 all custom 100 state_dump id type x y z vx vy vz
run 10000000
Neighbor list info ...
  update: every = 1 steps, delay = 0 steps, check = yes
  max neighbors/atom: 2000, page size: 100000
  master list distance cutoff = 5.77118
  ghost atom cutoff = 5.77118
  binsize = 2.88559, bins = 8 8 8
  1 neighbor lists, perpetual/occasional/extra = 1 0 0
  (1) pair sw, perpetual
      attributes: full, newton on
      pair build: full/bin/atomonly
      stencil: full/bin/3d
      bin: standard
Per MPI rank memory allocation (min/avg/max) = 3.119 | 3.119 | 3.119 Mbytes
   Step          Temp          Press          S/CPU         CPULeft    
         0   800            8498.5735      0              0            
    100000   800.9615       5890.2527      770.69851      12845.49     
    200000   870.17907      7092.6048      562.11075      15075.012    
    300000   774.61481      6364.1269      695.46006      14596.658    
    400000   797.13712      6051.6808      705.96374      14234.24     
    500000   799.56406      5641.0613      481.05054      15218.463    
    600000   819.95785      5722.5304      505.5598       15647.432    
    700000   833.44243      6188.5906      573.94512      15584.209    
    800000   756.57949      5457.744       567.79808      15514.925    
    900000   798.93348      5359.7212      573.49997      15404.195    
   1000000   824.70768      6039.2249      564.28021      15306.379    
   1100000   778.91428      6119.73        574.89955      15167.64     
   1200000   785.8873       7046.518       553.03227      15073.472    
   1300000   811.77522      4874.8895      547.72856      14977.69     
   1400000   766.17312      5831.0774      558.20884      14848.453    
   1500000   772.32818      5104.5118      571.2388       14689.406    
   1600000   813.04884      6270.4326      573.82089      14524.223    
   1700000   817.81108      6107.2087      565.0464       14371.182    
   1800000   815.86937      6126.7         576.72356      14199.159    
   1900000   770.95881      5908.7359      554.27566      14056.928    
   2000000   774.21521      5676.1615      580.41393      13878.38     
   2100000   812.24845      6332.1692      572.25412      13709.669    
   2200000   792.23252      5963.442       572.9007       13539.711    
   2300000   789.7892       5719.8234      561.2082       13381.528    
   2400000   788.96234      6293.7852      558.79684      13224.113    
   2500000   821.78846      5954.556       569.91779      13054.499    
   2600000   835.76495      6830.3901      595.29832      12863.143    
   2700000   790.12426      5918.6786      548.47238      12712.294    
   2800000   788.92259      5752.5979      567.72557      12543.297    
   2900000   780.58802      6026.7217      561.75194      12378.393    
   3000000   786.72049      5918.6618      569.69364      12206.824    
   3100000   802.12918      5480.7803      545.32429      12052.46     
   3200000   791.46829      5441.21        567.63206      11880.968    
   3300000   807.01812      6131.3848      573.47212      11705.55     
   3400000   800.32391      6700.8713      561.49144      11537.416    
   3500000   791.01332      5623.8068      587.92212      11353.843    
   3600000   805.28164      6716.8304      565.91432      11182.779    
   3700000   779.63879      5872.5411      578.3699       11004.93     
   3800000   767.35228      6346.3785      556.27175      10838.548    
   3900000   762.50678      5575.1653      562.1083       10668.56     
   4000000   812.46866      6332.5355      563.18778      10497.665    
   4100000   819.49088      7131.0633      559.07389      10328.325    
   4200000   780.60439      5286.8959      550.63617      10162.316    
   4300000   820.48201      5642.7149      563.3027       9990.1687    
   4400000   818.0218       6522.0985      567.56937      9816.0784    
   4500000   823.59862      6958.0178      556.6533       9646.1176    
   4600000   810.12953      5885.0278      575.23928      9468.922     
   4700000   771.59674      5602.6022      586.0283       9288.2601    
   4800000   800.05214      5858.7825      548.57791      9120.6358    
   4900000   785.87704      6607.1256      560.68733      8948.3153    
   5000000   793.3884       5776.0671      562.70069      8775.1154    
   5100000   884.19941      6585.1216      557.65071      8603.2846    
   5200000   809.69337      5516.8306      556.9915       8431.3616    
   5300000   794.36771      5475.2215      569.3813       8255.6868    
   5400000   786.57624      6036.0234      566.66783      8080.7301    
   5500000   829.49529      5644.3483      573.03591      7904.1139    
   5600000   834.84631      6402.6846      552.26271      7732.7304    
   5700000   789.57597      5796.43        557.44859      7559.7362    
   5800000   807.95942      6778.2286      559.26238      7386.1001    
   5900000   793.51114      6759.3429      560.0117       7212.1226    
   6000000   763.04234      5603.1453      570.10669      7035.884     
   6100000   806.74641      6043.9123      562.51018      6861.1873    
   6200000   774.08074      5732.323       558.23032      6687.2266    
   6300000   840.2132       6268.0823      566.25599      6511.6104    
   6400000   831.10379      6419.8455      561.19158      6336.86      
   6500000   838.72123      5686.1337      559.64004      6162.2697    
   6600000   812.20988      6479.5583      558.32796      5987.7716    
   6700000   791.54902      5972.3772      558.33836      5813.1344    
   6800000   798.98273      6293.9831      575.41815      5635.864     
   6900000   798.97901      6029.9886      566.42426      5459.9343    
   7000000   785.71363      5732.2711      563.34428      5284.4008    
   7100000   820.40814      5967.9357      552.10889      5110.2869    
   7200000   819.48227      6237.3997      575.96408      4933.061     
   7300000   836.5128       6254.3296      559.0354       4757.8785    
   7400000   837.20005      6003.4034      580.01056      4580.3231    
   7500000   795.02854      6016.0518      557.78745      4405.1947    
   7600000   793.48659      6253.1814      551.10635      4230.6433    
   7700000   765.54238      5679.9192      552.2461       4055.8008    
   7800000   800.46294      5826.6385      554.43277      3880.597     
   7900000   851.99115      5761.6331      557.60489      3704.9898    
   8000000   799.95402      5979.137       537.06029      3531.0044    
   8100000   780.82906      4820.2282      557.14236      3355.1432    
   8200000   769.54923      5666.5974      571.9902       3178.1707    
   8300000   780.55664      5833.1449      568.28806      3001.4832    
   8400000   849.2586       6200.4308      555.38574      2825.5915    
   8500000   786.45709      5909.6604      552.37413      2649.7751    
   8600000   812.14511      5766.5328      580.4646       2472.411     
   8700000   847.78517      6455.4273      575.45225      2295.3882    
   8800000   792.42097      5958.3771      560.84099      2119.0565    
   8900000   774.01871      5369.6006      566.64346      1942.4549    
   9000000   836.5796       6097.5998      560.22835      1766.0805    
   9100000   804.76869      6161.6326      552.3537       1589.9111    
   9200000   761.20449      6135.74        552.90996      1413.6199    
   9300000   793.71956      6346.4702      566.46639      1236.9047    
   9400000   756.63129      5023.4116      545.96912      1060.6163    
   9500000   824.83688      6651.2301      539.67078      884.29583    
   9600000   853.0986       6943.276       563.85766      707.4571     
   9700000   784.18048      5653.6188      577.68271      530.47657    
   9800000   857.66779      7012.8168      576.53863      353.58214    
   9900000   824.92288      6156.1097      565.67402      176.79096    
  10000000   791.02909      6036.5646      583.84627      0            
Loop time of 17673.6 on 1 procs for 10000000 steps with 513 atoms

Performance: 48.887 ns/day, 0.491 hours/ns, 565.816 timesteps/s, 290.264 katom-step/s
99.5% CPU use with 1 MPI tasks x 1 OpenMP threads

MPI task timing breakdown:
Section |  min time  |  avg time  |  max time  |%varavg| %total
---------------------------------------------------------------
Pair    | 17385      | 17385      | 17385      |   0.0 | 98.37
Neigh   | 0.13357    | 0.13357    | 0.13357    |   0.0 |  0.00
Comm    | 43.941     | 43.941     | 43.941     |   0.0 |  0.25
Output  | 162.76     | 162.76     | 162.76     |   0.0 |  0.92
Modify  | 64.808     | 64.808     | 64.808     |   0.0 |  0.37
Other   |            | 16.45      |            |       |  0.09

Nlocal:            513 ave         513 max         513 min
Histogram: 1 0 0 0 0 0 0 0 0 0
Nghost:           1458 ave        1458 max        1458 min
Histogram: 1 0 0 0 0 0 0 0 0 0
Neighs:              0 ave           0 max           0 min
Histogram: 1 0 0 0 0 0 0 0 0 0
FullNghs:        18192 ave       18192 max       18192 min
Histogram: 1 0 0 0 0 0 0 0 0 0

Total # of neighbors = 18192
Ave neighs/atom = 35.461988
Neighbor list builds = 178
Dangerous builds = 0
write_data FINAL_STRUCTURE
System init for write_data ...
Total wall time: 4:54:33
