LAMMPS (10 Sep 2025)
OMP_NUM_THREADS environment is not set. Defaulting to 1 thread.
  using 1 OpenMP thread(s) per MPI task
Loaded 1 plugins from C:\Users\lmike\AppData\Local\LAMMPS 64-bit 10Sep2025 with GUI\plugins
# LAMMPS input generated from LammpsInputFile with pymatgen v2025.10.7

# STYLES
units metal
atom_style atomic

# SET UP CALCULATION
read_data starting_config.dat
Reading data file ...
  orthogonal box = (0 0 0) to (21.77481 21.77481 21.77481)
  1 by 1 by 1 MPI processor grid
  reading atoms ...
  513 atoms
  read_data CPU = 0.002 seconds
pair_style sw
pair_coeff * * Si.sw Si
Reading sw potential file Si.sw with DATE: 2007-06-11
velocity all create 800 5102369

# CALCULATION PARAMETERS
fix f1 all nvt temp 800.0 800.0 $(100.0*dt)
fix f1 all nvt temp 800.0 800.0 0.10000000000000000555
thermo 100000
thermo_style custom step temp press spcpu cpuremain

# RUN CALC AND WRITE OUTPUTS
dump d1 all custom 100 state_dump id type x y z vx vy vz
run 10000000
Neighbor list info ...
  update: every = 1 steps, delay = 0 steps, check = yes
  max neighbors/atom: 2000, page size: 100000
  master list distance cutoff = 5.77118
  ghost atom cutoff = 5.77118
  binsize = 2.88559, bins = 8 8 8
  1 neighbor lists, perpetual/occasional/extra = 1 0 0
  (1) pair sw, perpetual
      attributes: full, newton on
      pair build: full/bin/atomonly
      stencil: full/bin/3d
      bin: standard
Per MPI rank memory allocation (min/avg/max) = 3.119 | 3.119 | 3.119 Mbytes
   Step          Temp          Press          S/CPU         CPULeft    
         0   800            6881.7174      0              0            
    100000   823.31553      4544.9738      956.92008      10345.692    
    200000   745.27062      4509.0377      959.6147       10226.811    
    300000   799.50035      4869.0922      960.03373      10116.241    
    400000   773.91613      4883.5536      872.03956      10261.131    
    500000   783.21865      4126.8668      890.7009       10256.547    
    600000   776.19524      3470.9745      850.00679      10300.275    
    700000   812.00275      4435.6444      849.54776      10298.741    
    800000   783.01233      4921.187       725.83922      10498.875    
    900000   773.10182      4044.7974      881.20585      10378.312    
   1000000   762.81446      3599.4976      922.95743      10212.965    
   1100000   775.61654      4128.1912      879.60894      10101.182    
   1200000   734.07322      3709.7746      956.64082      9921.95      
   1300000   828.53084      5380.9084      947.44373      9761.0007    
   1400000   844.9041       4434.1813      889.13797      9650.4828    
   1500000   897.35043      5287.0869      865.99174      9556.7391    
   1600000   763.1459       4056.9676      847.60558      9473.4295    
   1700000   779.79595      4038.3095      784.48661      9432.3869    
   1800000   820.41543      5335.0525      854.40041      9334.2231    
   1900000   811.90322      5305.0562      859.1146       9231.3343    
   2000000   787.66187      4109.2484      868.46855      9122.0797    
   2100000   736.98361      3872.209       879.98329      9006.5961    
   2200000   825.12935      4894.3476      848.07763      8906.4378    
   2300000   829.57522      4636.8253      862.30874      8798.2207    
   2400000   796.88828      5114.6249      858.44329      8691.0112    
   2500000   796.47942      4598.1576      873.37585      8577.0843    
   2600000   822.00316      3913.4747      854.42142      8470.3428    
   2700000   747.21615      2955.4431      850.59318      8364.2626    
   2800000   840.45056      3905.0048      857.08716      8255.0716    
   2900000   800.32656      4273.8601      859.79658      8144.4644    
   3000000   805.0588       4402.8866      864.34958      8032.0477    
   3100000   796.49015      3979.1126      884.02551      7913.688     
   3200000   777.94901      4208.7317      868.43639      7799.9709    
   3300000   787.26919      4346.2632      854.9716       7689.8488    
   3400000   814.27957      6010.5873      881.64604      7572.455     
   3500000   796.3093       4226.3859      859.50749      7460.7137    
   3600000   860.06496      4980.5304      837.70655      7354.0994    
   3700000   755.42133      4423.5057      869.42197      7239.3809    
   3800000   800.76087      3783.5205      868.63465      7124.8166    
   3900000   772.83355      4004.6178      859.61193      7012.1137    
   4000000   797.09491      3451.1425      870.35662      6897.0751    
   4100000   817.14337      4536.1835      844.15409      6787.1756    
   4200000   785.23013      4191.9345      833.30892      6678.9974    
   4300000   824.39305      4906.9779      877.58766      6562.2431    
   4400000   838.34333      4831.467       863.99517      6447.8979    
   4500000   770.07824      4072.8118      854.74027      6335.0223    
   4600000   829.6372       4807.9031      878.31653      6218.2811    
   4700000   788.31111      3358.9932      850.7399       6105.8244    
   4800000   750.47891      4936.0828      842.17228      5994.4512    
   4900000   823.91483      4815.602       875.23494      5878.1087    
   5000000   798.92135      4060.4096      893.21847      5759.5493    
   5100000   754.55917      4141.8848      845.82342      5647.2762    
   5200000   802.22944      3972.2536      863.76607      5532.5071    
   5300000   800.82545      3942.8121      859.79267      5418.1746    
   5400000   784.36442      4103.5782      853.42297      5304.5085    
   5500000   767.81747      5187.4524      847.22192      5191.4164    
   5600000   824.31749      4700.7517      884.12722      5074.2767    
   5700000   785.13462      3118.5177      844.45364      4961.2873    
   5800000   851.41222      5286.9185      847.70593      4847.7816    
   5900000   819.60262      4657.5889      861.0182       4732.8573    
   6000000   805.03736      4164.8181      856.22596      4618.3258    
   6100000   858.2276       4626.4801      874.8808       4502.1281    
   6200000   765.64578      4960.942       897.74829      4384.207     
   6300000   848.02869      4977.7331      851.61926      4270.0368    
   6400000   784.53713      4426.8474      873.88501      4154.082     
   6500000   792.64652      4304.8376      868.7097       4038.5412    
   6600000   762.24878      3981.1399      860.65387      3923.5684    
   6700000   781.90818      3878.9935      857.52533      3808.7681    
   6800000   759.9662       4266.2857      895.87788      3691.565     
   6900000   817.45543      5086.3931      835.27256      3578.1625    
   7000000   788.94453      3769.1635      854.71443      3463.4122    
   7100000   792.06671      4636.2152      877.55742      3347.3548    
   7200000   783.06139      4309.8276      859.34585      3232.2949    
   7300000   736.21729      3462.8981      862.77259      3117.0283    
   7400000   809.30184      5044.9425      881.05771      3000.8992    
   7500000   793.83532      4579.8488      862.3109       2885.6628    
   7600000   824.90791      4538.32        874.51942      2769.8958    
   7700000   793.59699      4266.2368      878.168        2654.0238    
   7800000   811.55432      4252.6761      857.88089      2538.9626    
   7900000   818.76853      4690.5298      861.90437      2423.7186    
   8000000   821.98152      4671.5031      865.55097      2308.333     
   8100000   774.104        3703.5584      861.53119      2193.0702    
   8200000   807.29931      4716.53        860.55315      2077.8166    
   8300000   807.88535      3693.254       857.83026      1962.6156    
   8400000   774.27829      4300.7417      880.76927      1846.8036    
   8500000   781.20853      4602.194       849.22584      1731.7894    
   8600000   804.64081      4309.7391      872.88942      1616.1918    
   8700000   831.24615      5233.0044      880.02211      1500.4793    
   8800000   819.22843      4754.8393      877.70818      1384.8548    
   8900000   798.19603      3456.1657      873.03435      1269.3438    
   9000000   751.16117      4729.0772      906.2673       1153.3875    
   9100000   755.53902      4052.8314      868.10712      1038.0344    
   9200000   820.06896      4711.4783      857.68375      922.80643    
   9300000   775.80452      4109.4482      901.32452      807.12422    
   9400000   819.26856      4391.4184      900.10622      691.55233    
   9500000   828.5933       4451.9056      870.41737      576.27407    
   9600000   850.98487      4994.0573      880.52473      460.949      
   9700000   796.08933      4189.2013      915.76868      345.52496    
   9800000   796.56031      4070.1821      883.32451      230.30985    
   9900000   806.20222      4413.8461      896.1906       115.11885    
  10000000   774.82125      4105.7948      894.17521      0            
Loop time of 11508.6 on 1 procs for 10000000 steps with 513 atoms

Performance: 75.074 ns/day, 0.320 hours/ns, 868.915 timesteps/s, 445.754 katom-step/s
99.4% CPU use with 1 MPI tasks x 1 OpenMP threads

MPI task timing breakdown:
Section |  min time  |  avg time  |  max time  |%varavg| %total
---------------------------------------------------------------
Pair    | 11312      | 11312      | 11312      |   0.0 | 98.29
Neigh   | 0.13265    | 0.13265    | 0.13265    |   0.0 |  0.00
Comm    | 30.615     | 30.615     | 30.615     |   0.0 |  0.27
Output  | 108.13     | 108.13     | 108.13     |   0.0 |  0.94
Modify  | 46.514     | 46.514     | 46.514     |   0.0 |  0.40
Other   |            | 11.34      |            |       |  0.10

Nlocal:            513 ave         513 max         513 min
Histogram: 1 0 0 0 0 0 0 0 0 0
Nghost:           1453 ave        1453 max        1453 min
Histogram: 1 0 0 0 0 0 0 0 0 0
Neighs:              0 ave           0 max           0 min
Histogram: 1 0 0 0 0 0 0 0 0 0
FullNghs:        18234 ave       18234 max       18234 min
Histogram: 1 0 0 0 0 0 0 0 0 0

Total # of neighbors = 18234
Ave neighs/atom = 35.54386
Neighbor list builds = 218
Dangerous builds = 0
write_data FINAL_STRUCTURE
System init for write_data ...
Total wall time: 3:11:48
