LAMMPS data file via write_data, version 29 Aug 2024, timestep = 10000000, units = metal

513 atoms
1 atom types

0 21.77481 xlo xhi
0 21.77481 ylo yhi
0 21.77481 zlo zhi

Masses

1 28.0855

Atoms # atomic

5 1 1.3698075776314473 1.3058843143455048 1.2229566604144442 0 0 0
3 1 2.6529781774282064 0.03271123220672714 2.7190301173827187 0 0 0
2 1 0.00669141078951318 2.532929275178524 2.640469495238874 0 0 0
10 1 5.327001860518142 2.651735001023893 2.9463456870901803 0 0 0
13 1 6.712209780822787 1.532004405100589 1.3141653943071383 0 0 0
11 1 7.974775462705156 21.75933025632869 2.732511330390621 0 -1 0
18 1 11.048015422856183 2.5171362323314774 2.6230911510478805 0 0 0
21 1 12.309317329219851 1.1942228349928103 1.2659909751481309 0 0 0
20 1 13.962724291707081 2.5696038925761644 21.74199065667495 0 0 -1
29 1 17.801877475987958 1.4156284672695907 1.4696296101731834 0 0 0
26 1 16.238551367916997 2.5745641912842068 2.7285594366234793 0 0 0
25 1 16.303618382002412 0.13259600847196573 0.045539655291640994 0 0 0
28 1 19.149898247073374 2.7521514167311403 0.1764495863430573 0 0 0
35 1 2.857676055605259 5.473307902169766 2.8409376566841154 0 0 0
33 1 0.27421667890879914 5.554015769945102 21.70669867296014 0 0 -1
8 1 4.34393142425001 4.121606592700556 1.438273629388708 0 0 0
41 1 6.3348217088523135 5.032035689289063 0.5780579211111868 0 0 0
43 1 8.183457721411497 5.310824953708203 2.6259424124834725 0 0 0
16 1 9.575937895499058 4.021501712077497 1.3185869758868944 0 0 0
49 1 11.073774972618354 5.359368510777679 0.06753935244057506 0 0 0
24 1 15.19748544016316 4.252134319207647 1.2922560461543018 0 0 0
51 1 13.919310142860528 5.543758878821897 2.4687267350107653 0 0 0
59 1 19.225320917342135 5.202215646164191 2.6932484179972067 0 0 0
32 1 20.605470076792763 4.082700388617514 1.290431733836588 0 0 0
37 1 1.6129983123665195 6.773833550755893 1.453225958051752 0 0 0
34 1 0.0625880882045994 8.051357452527274 2.868593353174422 0 0 0
36 1 2.5233960568711242 8.38839349625529 0.06329435084084825 0 0 0
42 1 5.282555552743646 8.540338095648732 2.9631069368467093 0 0 0
45 1 5.505928608166549 7.236340007595095 0.05371997217300333 0 0 0
50 1 7.430237557850502 7.563722245604025 1.934219530009128 0 0 0
44 1 8.348743132604929 8.393837248870293 21.55513378496617 0 0 -1
54 1 11.152947336802404 8.00510510468724 2.7664720393217164 0 0 0
53 1 12.320183217376965 6.647142109071373 1.4246273554681435 0 0 0
58 1 16.38651434413211 7.6999913400366236 2.6397337444910853 0 0 0
61 1 18.054621411593423 6.704210508792641 1.3305685433353174 0 0 0
60 1 19.323390599509043 8.106758877903461 21.767314133638127 0 0 -1
67 1 2.43692690572592 10.921770066098487 2.9205835734848002 0 0 0
69 1 1.1510652752037815 12.230886455299332 1.4008307509336482 0 0 0
40 1 3.8855171261127035 9.660105590412117 1.4044487770931096 0 0 0
75 1 8.256359144361493 10.982152623355303 2.8628134261297884 0 0 0
77 1 6.837574946164465 12.151896834881079 1.424571873288462 0 0 0
48 1 9.698297297526201 9.495862018916252 1.4305690234805033 0 0 0
85 1 12.27688012702171 12.378011598104772 1.7080264767418023 0 0 0
56 1 15.034512527921946 9.424757369582098 1.4989086771622053 0 0 0
83 1 13.813922162705804 10.826454874578687 2.8297276596909935 0 0 0
93 1 17.561975182951066 12.213936416384007 1.6055080814132956 0 0 0
64 1 20.446941251792396 9.408151243044191 1.5248708409794094 0 0 0
91 1 18.99660594096533 10.640828429138772 2.6774606770071996 0 0 0
72 1 3.97805844709271 14.959850570122738 1.6076052946239958 0 0 0
74 1 5.334538213582228 13.528586175163829 2.8493154297167957 0 0 0
80 1 9.51693325362125 15.024535215235709 1.2982497652028113 0 0 0
82 1 10.87445941061296 13.911156695035029 2.8815150542451775 0 0 0
88 1 14.751147850282061 15.01136867413222 1.3557995668390876 0 0 0
84 1 13.650970080603408 13.574445354983942 0.1840697493749647 0 0 0
90 1 16.320245925911195 13.59508928968968 2.8284660272435826 0 0 0
66 1 21.73376479899984 13.609978216981304 2.875052614215251 -1 0 0
96 1 20.460387954735534 15.107080111464821 1.506526465218911 0 0 0
92 1 18.923701807959038 13.617665120240794 0.1643185671351508 0 0 0
99 1 2.6577153316715716 16.33852142792032 2.858432560915687 0 0 0
101 1 1.3729219811853193 17.7681265091259 1.410815126198 0 0 0
107 1 8.296990871526145 16.40002463225614 2.658882398391949 0 0 0
109 1 6.784765942256087 17.727399685092678 1.3154925905091908 0 0 0
117 1 12.028511549201994 17.688495179657604 1.2127731651377764 0 0 0
113 1 10.945016159455824 16.29096797532329 21.606741931045807 0 0 -1
115 1 13.485707717833348 16.441696101026228 2.7480474840095943 0 0 0
125 1 17.74195669522888 17.59268886791839 1.4641646184790644 0 0 0
121 1 16.279793524576693 16.30901494349223 0.021838175358711215 0 0 0
123 1 19.017383274331706 16.285456753474627 2.9675487709342945 0 0 0
98 1 0.061735360816863365 19.177489948210393 2.706542539285956 0 0 0
100 1 2.468030559871362 19.284438294930524 21.733221163436426 0 0 -1
106 1 5.427136778794377 19.08634750363876 2.584284481611734 0 0 0
104 1 3.976800646512759 20.539478464793895 1.1239712212466066 0 0 0
112 1 9.298976306579872 20.468805055013366 1.3630468202490353 0 0 0
114 1 10.733015728709345 19.148883766386227 2.6009435294206438 0 0 0
19 1 13.582454947688646 21.62922054282869 2.795503025054963 0 -1 0
120 1 14.938787896133059 20.434953499095283 1.3800726021145118 0 0 0
116 1 13.550697704363984 19.08388888127268 21.74756138016651 0 0 -1
122 1 16.331868234979584 19.03183908074866 2.756785412498728 0 0 0
27 1 19.116190706225535 21.70737702550413 2.803307515320545 0 -1 0
128 1 20.530583781960868 20.406399718096296 1.3023639019915167 0 0 0
132 1 2.5586788095633435 2.788167079611758 5.471230278965175 0 0 0
7 1 3.9498579063309873 1.3836932431901194 4.273188592113128 0 0 0
137 1 5.191301957684815 0.0962712140410762 5.603258941436088 0 0 0
140 1 8.153206940344454 2.7608513901831198 5.637693313557665 0 0 0
15 1 9.44239337115236 1.3136138849885564 4.001120677314755 0 0 0
23 1 14.75418463594681 1.3899888371793698 3.997348271744686 0 0 0
148 1 13.544799665572604 2.5930531154103282 5.473359697100065 0 0 0
31 1 20.427221114478197 1.328350325931865 4.100122813636956 0 0 0
156 1 18.872641433289104 2.627240935360985 5.386470446946823 0 0 0
6 1 1.3379719728314372 4.0878693611048655 4.196423745880956 0 0 0
169 1 5.584206095370587 5.462547304185337 5.6051404860341805 0 0 0
14 1 6.739903328455329 4.169684281069349 4.155051002513545 0 0 0
177 1 11.087977469960794 5.376700373792063 5.234860433727111 0 0 0
22 1 12.538163286584014 4.01374905153083 3.887227701059442 0 0 0
30 1 17.707216719481803 3.9634365459924923 3.880005541162904 0 0 0
185 1 16.45063360758104 5.316890025565247 5.548535833985468 0 0 0
161 1 21.68563832724982 5.344720069792157 5.617307521371386 -1 0 0
164 1 2.5350687421934883 8.232626380508346 5.426741487869138 0 0 0
39 1 4.099666118528497 6.931253830666219 4.21809711524211 0 0 0
172 1 8.484290879735772 8.238751973923499 5.5822013391622445 0 0 0
47 1 9.59330219795253 6.712408587204509 4.068911332289949 0 0 0
55 1 15.244845977286145 6.502021672055021 4.120257152906323 0 0 0
180 1 13.911385166535737 8.00785703245112 5.469022396996973 0 0 0
63 1 20.358155384135387 6.622800829782676 4.175291736843599 0 0 0
188 1 19.150663044439735 7.906521488087984 5.604110227683857 0 0 0
38 1 1.209711726548579 9.55304749933182 4.213545720079862 0 0 0
201 1 5.31645870445068 10.715936648439284 5.5376903035768175 0 0 0
71 1 3.8470894511275735 12.108035538686606 4.455975574151423 0 0 0
46 1 6.937768798536469 9.476852629696548 4.21354520738773 0 0 0
209 1 11.056373980021602 10.657896624092924 5.443770527523118 0 0 0
79 1 9.736753269474482 12.18946997325435 4.227018698820351 0 0 0
513 1 12.453336821564312 9.37898829859455 4.113483768644095 0 0 0
87 1 15.016260974164258 11.968081058890276 4.220248788026474 0 0 0
62 1 17.692036390006624 9.234079818818673 4.215274088169304 0 0 0
217 1 16.388844228877357 10.582822661526194 5.542816628465802 0 0 0
193 1 21.57607143733781 10.736810037076529 5.458672363151857 -1 0 0
95 1 20.237930190118302 12.138990080334063 4.053031203958808 0 0 0
70 1 1.4565588666930243 14.903761280963723 3.966027663231495 0 0 0
196 1 2.672925976313004 13.709105491916853 5.494064114554047 0 0 0
78 1 6.941639349022557 14.95273767789923 4.058723494958213 0 0 0
204 1 8.168497155704594 13.482542439053004 5.4254115369813904 0 0 0
86 1 12.336524968285556 14.943315716049748 4.269921307187529 0 0 0
212 1 13.733055975257841 13.462033425688062 5.512675871273672 0 0 0
94 1 17.617659423514585 14.99410093092782 4.268502905290194 0 0 0
220 1 18.797922777992547 13.449661886473365 5.376895105551026 0 0 0
225 1 0.07409428566029277 16.300808915268206 5.3032096716032 0 0 0
103 1 4.162276944032696 17.65439849227088 4.0930495935091535 0 0 0
233 1 5.597426878715486 16.40212397216702 5.407200282847571 0 0 0
111 1 9.434368032312001 17.8023561709044 4.041766243856283 0 0 0
241 1 10.76587826881744 16.37661797008083 5.43785709131963 0 0 0
119 1 14.845480584472986 17.608463957173587 4.218209133585801 0 0 0
249 1 16.25490572223372 16.342187537413608 5.533146240091831 0 0 0
127 1 20.45969886618064 17.63793221587758 4.017082820545512 0 0 0
102 1 1.4819309569002388 20.552739855551167 4.0549727878265776 0 0 0
228 1 2.7749335051870916 19.110028930514748 5.385882091835328 0 0 0
110 1 6.575572057470063 20.624486076875577 4.159341831824061 0 0 0
236 1 8.020220923089665 19.106142283714554 5.409977727569507 0 0 0
145 1 10.737998500440902 21.766249898798605 5.523414466086737 0 -1 0
118 1 12.07960921021202 20.490117076743797 4.026061312532904 0 0 0
244 1 13.362293896202136 18.999639822910126 5.489703533169293 0 0 0
153 1 16.14687910075969 0.08545576246406839 5.425411905919508 0 0 0
126 1 17.76991444113868 20.335162966443853 4.109885981169847 0 0 0
129 1 0.03562779561382712 0.2373266036194579 5.288493705032545 0 0 0
252 1 19.01971971847898 18.95828587430325 5.399297022174966 0 0 0
133 1 1.3929651493141082 1.2231674123184983 6.727172182231063 0 0 0
131 1 2.738929948465807 21.524793754044804 8.280638754757993 0 -1 0
130 1 0.02534840691451194 2.7664987491207715 8.01895079330823 0 0 0
138 1 5.427147792019185 2.734222715396168 8.185929904913545 0 0 0
141 1 6.677220794337636 1.4458018006076667 6.73134728409301 0 0 0
139 1 8.06501528729791 0.16550338150288446 8.227698523127989 0 0 0
146 1 10.809379095476686 2.4959076920757517 8.134899343554542 0 0 0
149 1 12.186988593621003 1.1808998598294569 6.73337045057723 0 0 0
147 1 13.628352574591034 21.70971075013219 8.105818325955537 0 -1 0
154 1 16.204654557268576 2.6922240670994797 8.265927352283596 0 0 0
157 1 17.506949193216343 1.5209891205011432 6.669791189551008 0 0 0
163 1 2.6920089975690678 5.525172994928382 8.102447315367547 0 0 0
136 1 3.9527870721110996 4.108303709143656 6.960772416363092 0 0 0
171 1 8.36474039542628 5.276101958064201 8.250061257441537 0 0 0
142 1 6.748119366260485 4.117288200643101 9.487275420302494 0 0 0
144 1 9.660387660968865 4.099503175709421 6.81883032203835 0 0 0
152 1 14.98675202384184 3.929286926460002 6.704307218873247 0 0 0
179 1 13.701550168401138 5.270416377538156 8.13422393583724 0 0 0
160 1 20.428535791189372 3.8339596554834254 6.622779426211624 0 0 0
187 1 19.00843543823682 5.282407526097551 8.106847534494781 0 0 0
165 1 1.2048595322207463 6.741781143299185 6.862788595615884 0 0 0
170 1 5.529360079246255 8.076769694429254 8.09308320630991 0 0 0
173 1 7.122533034767904 6.722381556982113 6.775646080634475 0 0 0
178 1 10.948446035913522 7.857450566896146 8.165024837602287 0 0 0
181 1 12.512454981918834 6.648069897758594 6.6642307733707815 0 0 0
184 1 14.957076925013618 9.336049597411105 7.032761133595118 0 0 0
186 1 16.492882937785616 8.141085093545216 8.514908433770549 0 0 0
189 1 17.572661325179002 6.640876851438453 6.75006710247682 0 0 0
162 1 21.7740994461447 8.223823569007424 8.13331113247824 -1 0 0
195 1 2.7981022852115363 10.852492301996191 8.05347785289291 0 0 0
168 1 3.8457662350160855 9.335369033023259 6.912403628498485 0 0 0
203 1 8.11374849129401 10.787137353217753 8.130183432200344 0 0 0
205 1 6.796927395715217 12.179598383869964 6.805272473563654 0 0 0
176 1 9.60171691441043 9.460499928932427 7.068753499524701 0 0 0
213 1 12.381644712263197 12.07492182980849 6.716636886970499 0 0 0
211 1 13.58264321763416 10.789653270677016 8.336523584219137 0 0 0
221 1 17.51061343638995 12.23637045774413 6.959177283797992 0 0 0
192 1 20.253499882966935 9.534780448750375 7.099076436818506 0 0 0
219 1 19.006084546479975 11.043836676283254 8.28953363385989 0 0 0
197 1 1.423739078848956 12.052937940320106 6.732280671054533 0 0 0
200 1 4.1800467119403875 15.060423493172378 6.672578299404351 0 0 0
202 1 5.413322554683808 13.74360945311422 7.935923842715229 0 0 0
208 1 9.591773995044132 14.912433041270118 6.760805370665312 0 0 0
210 1 11.002756091564837 13.525508787439398 8.089715877568587 0 0 0
216 1 15.084453263641114 15.040627753355064 6.939806237647298 0 0 0
218 1 16.09061259984187 13.57638418824663 8.336113475924037 0 0 0
194 1 0.09626718501129972 13.539529008402976 7.9503528852851675 0 0 0
224 1 20.62300107606902 15.030624613270472 6.575836207514193 0 0 0
227 1 2.6926646412563024 16.380782097616862 8.028334158484904 0 0 0
229 1 1.3847814421111695 17.77562533993365 6.683584243629031 0 0 0
235 1 8.214331461875256 16.25583776949414 8.086457712469967 0 0 0
237 1 6.932492178008256 17.698996609089384 6.698675904682243 0 0 0
245 1 12.218167769390602 17.50291759645956 6.913562994731985 0 0 0
239 1 9.365352422307634 17.92626262825244 9.655597902982743 0 0 0
243 1 13.588966516918452 16.294648780802042 8.230958423006285 0 0 0
253 1 17.699984253821285 17.566834816878096 6.770118726352885 0 0 0
251 1 19.188175469690194 16.338600070685146 8.07701850530339 0 0 0
226 1 21.686213263150723 19.1493804889402 7.971378887422136 -1 0 0
230 1 1.4198516250761273 20.181786025530272 9.587059608432883 0 0 0
232 1 4.186604078940839 20.351744880902913 6.948019648091896 0 0 0
234 1 5.5852818433789935 18.98382623474302 8.163896904621776 0 0 0
240 1 9.466097619755125 20.336583058445168 6.720718990276541 0 0 0
242 1 10.694824832738135 19.051405361340773 8.124066560521968 0 0 0
248 1 15.001825836020775 20.436971067009505 6.872540018915359 0 0 0
250 1 16.23364227772326 18.97255318870519 8.160353843952903 0 0 0
155 1 18.895808037392925 21.68180543839493 8.046714416987836 0 -1 0
256 1 20.457473573087814 20.541127866136204 6.7214427645427985 0 0 0
260 1 2.8736743129750892 2.8159993014810714 10.982093600712274 0 0 0
261 1 1.4707035594651696 1.4084648072892045 12.199777240496816 0 0 0
135 1 4.0167049492768365 1.2707802552163685 9.64338973758171 0 0 0
268 1 8.162644363024503 2.807525375069806 11.093239002149167 0 0 0
269 1 6.830822322353096 1.4531061556909588 12.31008158109105 0 0 0
143 1 9.613204532686169 1.4014441251329781 9.722498862830276 0 0 0
273 1 10.964497583041084 0.08304838540467935 11.050985209784217 0 0 0
277 1 12.398702642398812 1.5220130724586565 12.584213473271928 0 0 0
151 1 14.989349449377602 1.1101711098215696 9.698920901572198 0 0 0
276 1 13.729163855763284 2.49854236377984 11.060256596128342 0 0 0
285 1 17.66633644490099 1.4890706897411548 12.145961802933398 0 0 0
281 1 16.40049405241153 21.625599671391587 10.868131283397474 0 -1 0
159 1 20.325048866499287 1.2368877007986596 9.350110958825654 0 0 0
284 1 19.2208394615044 2.6947800065436196 10.820138530169054 0 0 0
134 1 1.4171451661732641 4.200989647684231 9.471136869100519 0 0 0
289 1 21.771784320919043 5.593994852035206 10.682261132624877 -1 0 0
297 1 5.494757185756868 5.598355031486388 10.793872839230263 0 0 0
264 1 4.325585770702363 4.19314453699667 12.14315077914516 0 0 0
305 1 10.99210563435626 5.381454157803576 10.849554297247701 0 0 0
150 1 12.335625677182653 3.68362846547605 9.599923974485971 0 0 0
272 1 9.594773779446292 4.154287261244317 12.378515792427878 0 0 0
280 1 15.06228884955558 3.937294123845193 12.484065462645708 0 0 0
158 1 17.86871478593475 3.9975327594520182 9.652557873902856 0 0 0
313 1 16.292203744426697 5.468177618608034 10.838626599995136 0 0 0
288 1 20.56272122001598 4.106351168723898 12.163644570997862 0 0 0
292 1 2.7951948588809974 8.219134061050056 10.860602987157314 0 0 0
293 1 1.3270736373804823 6.994157810260729 12.12424734927925 0 0 0
167 1 4.017690064898768 6.777453015161881 9.448874878904086 0 0 0
300 1 8.411092341096536 8.22466157674482 10.728122523976692 0 0 0
301 1 7.065152853251877 6.91334480182143 12.0822546974148 0 0 0
175 1 9.718013045330874 6.729316180479439 9.604319418782797 0 0 0
183 1 15.000928517520093 6.617508005912672 9.440501922640205 0 0 0
308 1 13.70023355282129 8.199948557021012 10.91782711905856 0 0 0
191 1 20.297100308161607 6.819574930647926 9.254321168654634 0 0 0
316 1 18.904050457668983 8.246269958688185 10.847472411276073 0 0 0
166 1 1.3824989442680977 9.572191835217769 9.539316120358707 0 0 0
325 1 1.4440661294626165 12.317539523699486 12.11166415038229 0 0 0
321 1 21.701209796778965 10.882866996112424 10.885974562893413 -1 0 0
329 1 5.612839246247007 10.929608196141263 10.672302956423993 0 0 0
199 1 4.354086233893824 12.345256143129399 9.280716311784067 0 0 0
296 1 4.234691568811281 9.707115025665054 12.068598806993263 0 0 0
174 1 6.880756186364867 9.473596856836934 9.459048666178864 0 0 0
333 1 6.911839429794914 12.276792534482224 12.114338368713069 0 0 0
304 1 9.634100570355274 9.60242151468237 12.499764392387101 0 0 0
182 1 12.060547142205603 9.468356119344678 9.616796883245652 0 0 0
207 1 9.55929577354831 12.225223133714744 9.47780290652789 0 0 0
337 1 10.9503898369962 11.056832697667792 11.037224941706132 0 0 0
215 1 14.832839383136395 12.255105841543434 9.819704458017682 0 0 0
190 1 17.650095217927124 9.819174035837241 9.721690388917953 0 0 0
345 1 16.27966706716236 11.023181725614174 11.170194982980142 0 0 0
320 1 20.32424630010099 9.485212257592677 12.285484729516565 0 0 0
223 1 20.322114837653842 12.325795812435212 9.481545854228736 0 0 0
198 1 1.3041840391532165 15.011495079810617 9.2083749198763 0 0 0
324 1 2.796223958389189 13.597454236289675 10.423921931511297 0 0 0
328 1 3.9436485657502476 14.851799410924697 12.04351770924917 0 0 0
206 1 6.747239936876899 14.918853192974154 9.464591838191382 0 0 0
332 1 8.364321528381694 13.745222976757423 10.796667636169625 0 0 0
336 1 9.588144694329515 15.225548729224192 12.087250310703595 0 0 0
214 1 12.277977265258352 14.865119515465935 9.541133256723084 0 0 0
340 1 13.638739550313925 13.71290704759023 11.039325279230159 0 0 0
222 1 17.679012052511148 14.968201040407589 9.510693631668726 0 0 0
348 1 19.078314347987483 13.617425592990841 10.912610003849238 0 0 0
352 1 20.670230073257756 14.938668392453792 12.019684068407317 0 0 0
357 1 1.2749143531213678 17.838818980962294 12.31505710679037 0 0 0
353 1 0.03667330679943165 16.389355892783623 10.685042393079453 0 0 0
231 1 4.172812804394136 17.690813096469878 9.630438632518079 0 0 0
361 1 5.396956575148585 16.162146611404406 10.930827596997844 0 0 0
365 1 6.622715641547371 17.70785963040349 12.320410401917636 0 0 0
369 1 10.96003319707585 16.407348361482338 10.70870073700251 0 0 0
373 1 12.16854475239431 17.7515397142156 12.194444948452574 0 0 0
247 1 14.676510838244175 17.730473012625556 9.640408147299675 0 0 0
377 1 16.328704446891134 16.453592311333313 10.792979263662678 0 0 0
381 1 17.70617501848752 17.71267145265782 12.227400012002922 0 0 0
255 1 20.422605780035664 17.65612823996414 9.396009756480074 0 0 0
257 1 0.12339285984580661 0.060046562462389375 10.79960624223636 0 0 0
356 1 3.029450243393342 19.070733862907296 10.974799116102238 0 0 0
265 1 5.45363059585817 0.01758715727949678 10.942304896300534 0 0 0
360 1 4.21940699908123 20.51544390177085 12.323908790770302 0 0 0
238 1 6.736432668421756 20.524530855127132 9.517111467261593 0 0 0
364 1 7.998239230913024 19.20744276080361 11.001680758660715 0 0 0
246 1 12.084170636950038 20.484580711978715 9.381874285521679 0 0 0
368 1 9.656924574994278 20.473550839171622 12.2176130117424 0 0 0
372 1 13.521820490577282 19.32850253907249 10.768386824177101 0 0 0
376 1 14.903849616743129 20.48094704773308 12.383221120880881 0 0 0
254 1 17.705407964918443 20.330390673098194 9.473701065603954 0 0 0
380 1 19.122509927806917 18.997982161168686 10.896990205533715 0 0 0
384 1 20.53761883480611 20.539802472925004 12.243782895635768 0 0 0
259 1 2.814129246913005 0.11479524512619596 13.557860694694162 0 0 0
258 1 21.74603665946443 2.8099416433772433 13.623420405693619 -1 0 0
263 1 4.233013468706361 1.5293024642688846 15.059778899754182 0 0 0
266 1 5.5082917809263945 2.90533802086666 13.61864692594153 0 0 0
267 1 8.185939518950674 21.749905521246777 13.499836748073657 0 -1 0
271 1 9.369322904968174 1.2610956479263171 15.067634127104 0 0 0
274 1 10.786003662237977 2.7658814711641977 13.796431425568821 0 0 0
279 1 15.024343456555012 1.2039497542499076 15.066303478886338 0 0 0
275 1 13.569654486057026 21.72430195140904 13.805121091721055 0 -1 0
282 1 16.58153083663491 2.645169219570524 13.730117946023107 0 0 0
287 1 20.224985038432575 1.490735832242187 14.86765988216562 0 0 0
283 1 19.202021364877194 0.0984168074608492 13.54501164062874 0 0 0
262 1 1.4702024493272452 4.314122384510343 14.930882092304648 0 0 0
291 1 2.860491543941734 5.597279585344759 13.420699439411264 0 0 0
270 1 7.045848415858187 4.202731736954925 14.888272755288465 0 0 0
299 1 8.317562057178387 5.634239102626463 13.730762418307883 0 0 0
278 1 12.410749522433687 3.9738550200286573 15.019428547335389 0 0 0
307 1 13.753790109592769 5.423914899014409 13.778206782386285 0 0 0
286 1 17.695100572646496 4.131726578912455 15.137545635602683 0 0 0
315 1 19.14632638292892 5.3786113180035375 13.55779452273439 0 0 0
290 1 21.582338739538528 8.225108725271374 13.659282406830794 -1 0 0
295 1 4.503227256277024 6.837818978090693 14.939341105835863 0 0 0
298 1 5.6740832186595735 8.176063476656275 13.55165316854135 0 0 0
309 1 12.44262758386979 6.628068716633521 12.375148838269705 0 0 0
303 1 9.49024956689453 6.867699738246404 15.093752032099196 0 0 0
306 1 11.059527626621426 8.104434697985633 13.695500132331084 0 0 0
311 1 15.052815588649743 6.912072637080668 15.15999118405865 0 0 0
317 1 17.563972586318616 6.64563672104777 12.30778425826447 0 0 0
314 1 16.327848124141415 8.128437904318293 13.64728096452666 0 0 0
319 1 20.334180907495455 6.81992991221715 14.938614737395946 0 0 0
294 1 1.2942699232117651 9.620160292971258 14.85162017110734 0 0 0
323 1 2.7838121785974566 11.026181608306887 13.506630545807372 0 0 0
327 1 4.033010245292218 12.457541602844675 14.853117091973068 0 0 0
302 1 6.815835417726722 9.79277015851395 15.090275467508393 0 0 0
331 1 8.26651238923528 10.992605883942 13.624177308047392 0 0 0
335 1 9.645657437680883 12.422801992444207 14.886373031880554 0 0 0
341 1 12.279722457349887 12.409800584310142 12.312573021614915 0 0 0
310 1 12.203648447764381 9.589539560356474 15.254219421854115 0 0 0
312 1 14.853179923119276 9.611480880096888 12.410435119165871 0 0 0
339 1 13.478490200707622 10.834459120433303 13.7615253139431 0 0 0
343 1 15.065665675067304 12.281330883179024 14.91253679908708 0 0 0
349 1 17.762293237813118 12.27420902221966 12.347302536768272 0 0 0
318 1 17.732239042044505 9.49606951996031 15.101864508867202 0 0 0
347 1 19.120642552836063 10.862275999914964 13.583048417352092 0 0 0
351 1 20.50717509048299 12.31143305498839 14.99838286203278 0 0 0
326 1 1.4969229499318129 15.103253414859289 14.930716666815899 0 0 0
330 1 5.424209840349479 13.63607893657257 13.44578020672355 0 0 0
334 1 6.585531583883018 14.858710038442636 14.954750067512174 0 0 0
338 1 10.901760300559234 13.992039028079116 13.485876432624725 0 0 0
342 1 12.419073376294481 15.039577947490578 15.09426791000294 0 0 0
344 1 15.086733225040573 14.973329188621511 12.393445679270172 0 0 0
346 1 16.383508706202463 13.662858770707208 13.678089354212176 0 0 0
350 1 17.69559521605959 15.09630496459478 14.889072036296552 0 0 0
322 1 0.16538934382949932 13.593389768480092 13.585820871657559 0 0 0
355 1 2.7917017623346667 16.483093651198317 13.487082787563248 0 0 0
359 1 3.998251603415237 17.714885325851473 15.106026556301881 0 0 0
363 1 8.151548507067528 16.398005814368428 13.616068203602476 0 0 0
367 1 9.405281324494418 17.810041201699942 14.89920861142318 0 0 0
371 1 13.499392606723243 16.482320651115778 13.672693513513133 0 0 0
375 1 14.977181952112296 17.540210131415144 15.167628279167733 0 0 0
379 1 19.066274330679445 16.322966528943887 13.451690381727012 0 0 0
383 1 20.34689417002194 17.613250811262297 14.957139201977645 0 0 0
358 1 1.3578178136749322 20.433432164752954 14.930554040184902 0 0 0
354 1 21.733495320657063 19.093177317951564 13.589288889366728 -1 0 0
362 1 5.353538043954666 19.115515214758556 13.687366380895734 0 0 0
366 1 6.843217248992652 20.567611472112507 14.951288950659231 0 0 0
370 1 10.814787051186354 19.006605102652003 13.47868540059638 0 0 0
374 1 12.213769702393735 20.130370011514145 14.957456373965817 0 0 0
378 1 16.245043221315072 18.99040351003938 13.675692848287133 0 0 0
382 1 17.72612293341349 20.432059208934653 14.827753422633155 0 0 0
389 1 1.2663698357682838 1.4406732084623404 17.555416835164735 0 0 0
388 1 2.8382825654479507 2.967086583290381 16.30723632612618 0 0 0
393 1 5.490336354849319 0.2919152570656334 16.44607115099105 0 0 0
396 1 8.225723596171063 2.8676945276384447 16.257307513957468 0 0 0
397 1 7.053394762227124 1.4848514081066984 17.674414130084735 0 0 0
405 1 12.07263628160412 0.8820102376146948 17.684509386360542 0 0 0
401 1 10.563853532643813 21.406541247074497 16.211498914166345 0 -1 0
404 1 13.610959208900889 2.4098344978041384 16.483754385736443 0 0 0
413 1 17.78276290115628 1.351092198367747 17.58942067546337 0 0 0
409 1 16.408371043776828 21.75177676377577 16.250514664288513 0 -1 0
412 1 19.099390310970833 2.9105476160717103 16.41627168595987 0 0 0
385 1 21.670328163181022 0.1336153128246134 16.226461711992027 -1 0 0
417 1 21.763148970333216 5.65759511891938 16.25772142704503 -1 0 0
392 1 4.228352072804841 4.189087147021535 17.572200993230062 0 0 0
425 1 5.753802926152592 5.430269750634681 16.329731490558327 0 0 0
400 1 9.712413657013235 4.050780518519748 17.663968354498955 0 0 0
433 1 10.87491357282007 5.4347575117506945 16.244005519257875 0 0 0
408 1 14.940919625812798 4.04590904821631 17.72381913326227 0 0 0
441 1 16.3904576143704 5.34491956243161 16.524303375984406 0 0 0
416 1 20.579319503598217 4.334134287101668 17.7231506078983 0 0 0
420 1 2.7021006251378945 8.323028676735234 16.043973810681372 0 0 0
421 1 1.556346090701089 6.93870734017009 17.629962739938414 0 0 0
428 1 8.17378496709538 8.254940490497091 16.31599192334439 0 0 0
429 1 6.880839328842359 6.825552761045835 17.642129710391945 0 0 0
437 1 12.242122815413941 6.844110265725151 17.813779781782156 0 0 0
436 1 13.575489116583553 8.247456876804673 16.47864420787677 0 0 0
445 1 17.83588030169216 6.677547100100873 18.005499381379735 0 0 0
444 1 19.07832504999509 8.191438303156056 16.443000228041996 0 0 0
449 1 21.572630235060775 10.966413245168397 16.397680953706722 -1 0 0
424 1 3.965375892604327 9.697389381374828 17.492630927447145 0 0 0
457 1 5.259598865628753 11.02733284944428 16.193428036709935 0 0 0
461 1 6.732389204643889 12.216029502512704 17.68113189994991 0 0 0
432 1 9.462984316218034 9.475382093300547 17.78820717018955 0 0 0
465 1 10.828662607819235 11.111417499576097 16.54515518911812 0 0 0
469 1 12.351517688099273 12.317294151376462 17.88847763550704 0 0 0
440 1 15.052387627622304 9.51835185349338 17.657981152242275 0 0 0
473 1 16.44767194489678 10.92296389164133 16.29550227783331 0 0 0
477 1 17.721535071748946 12.373879850812864 17.79397777825697 0 0 0
448 1 20.346783631469155 9.686028575456426 17.78830581896773 0 0 0
453 1 1.3850815587482266 12.09462570515607 17.769944264979706 0 0 0
452 1 2.714287854995476 13.746789225207468 16.3811145998775 0 0 0
456 1 4.045006357856643 15.0106048262732 17.972484938447796 0 0 0
460 1 8.001957009514488 13.589215823555705 16.330352496310027 0 0 0
464 1 9.34847593784802 15.040859743134103 17.460553068339003 0 0 0
468 1 13.632255105940265 13.410756833597501 16.299748488948424 0 0 0
472 1 15.043333831031145 14.798587236686986 17.770298941012765 0 0 0
476 1 19.144359953482873 13.763336665148243 16.359592601764987 0 0 0
480 1 20.310176663768125 14.95315295412348 17.752761508522504 0 0 0
485 1 1.3060586789343804 17.697584474454253 17.571470820107283 0 0 0
489 1 5.291384667774996 16.214487538426212 16.490549179827344 0 0 0
493 1 6.6500935339182545 17.737233303588553 17.701959086547305 0 0 0
497 1 10.714259146473008 16.249209727841 16.049839908684515 0 0 0
501 1 12.211183962207876 17.378851366510347 17.624605203299055 0 0 0
505 1 16.348970777371754 16.25389078727134 16.462107185892066 0 0 0
509 1 17.746663483172625 17.699517940981174 17.681459885166372 0 0 0
481 1 21.73056284727148 16.338006683484917 16.35690869091765 -1 0 0
484 1 2.56444309243705 19.17518523733251 16.32865592557017 0 0 0
488 1 4.0367951833321545 20.537642590540738 17.705391225647915 0 0 0
492 1 7.933467888429291 19.07040631817379 16.37234583741734 0 0 0
496 1 9.527494494548664 20.16551067100741 17.784573629804093 0 0 0
500 1 13.47669261226658 18.921017768421134 16.368320518505094 0 0 0
504 1 15.134861950552688 20.194210400441957 17.61713832303622 0 0 0
508 1 18.911009571320452 19.002578517232543 16.162001254316678 0 0 0
512 1 20.248261004792052 20.398735153633424 17.602415540404774 0 0 0
4 1 2.9651871812623596 2.8359640921476017 0.2203891285753734 0 0 0
391 1 3.878985397923919 1.5361113995732492 20.389386205993347 0 0 0
394 1 5.472311734898379 2.6852732746022494 18.937117306536532 0 0 0
12 1 8.271800602836203 2.672417400704554 0.02019261255488658 0 0 0
399 1 9.42029490584612 1.3734169989827825 20.165748953222806 0 0 0
402 1 10.947627967143747 2.5752202817597794 18.943002208814647 0 0 0
407 1 15.151943283767608 1.2899194172602284 20.201195678956662 0 0 0
410 1 16.522072912981727 2.8917405523983675 19.0149777609653 0 0 0
386 1 21.729009844680593 2.6494334426821315 19.004733561431326 -1 0 0
415 1 20.29726890575626 1.372790431489544 20.344600222669847 0 0 0