LAMMPS (29 Aug 2024)
OMP_NUM_THREADS environment is not set. Defaulting to 1 thread. (src/comm.cpp:98)
  using 1 OpenMP thread(s) per MPI task
units           metal
atom_style      atomic
boundary        p p p

read_data       starting_config_1int_relaxed.dat
Reading data file ...
  orthogonal box = (0 0 0) to (21.77481 21.77481 21.77481)
  1 by 1 by 1 MPI processor grid
  reading atoms ...
  513 atoms
  reading velocities ...
  513 velocities
  read_data CPU = 0.006 seconds

mass            1 28.0855

pair_style      sw
pair_coeff      * * Si.sw Si
Reading sw potential file Si.sw with DATE: 2007-06-11

neighbor        2.0 bin
neigh_modify    delay 0 every 1 check yes

timestep        0.001      # 1 fs

# Start at 300 K and heat to 1000 K
velocity        all create 300.0 12345 mom yes rot no dist gaussian
fix             1 all nvt temp 300.0 1000.0 0.1

thermo          10000
thermo_style    custom step temp pe ke etotal

# Dump every 100 steps => 0.1 ps between raw frames
dump            d1 all custom 100 state_dump_1int id type x y z vx vy vz
dump_modify     d1 sort id

# 10,000,000 steps = 10 ns
run             10000000

CITE-CITE-CITE-CITE-CITE-CITE-CITE-CITE-CITE-CITE-CITE-CITE-CITE

Your simulation uses code contributions which should be cited:

- Type Label Framework: https://doi.org/10.1021/acs.jpcb.3c08419

@Article{Gissinger24,
 author = {Jacob R. Gissinger, Ilia Nikiforov, Yaser Afshar, Brendon Waters, Moon-ki Choi, Daniel S. Karls, Alexander Stukowski, Wonpil Im, Hendrik Heinz, Axel Kohlmeyer, and Ellad B. Tadmor},
 title = {Type Label Framework for Bonded Force Fields in LAMMPS},
 journal = {J. Phys. Chem. B},
 year =    2024,
 volume =  128,
 number =  13,
 pages =   {3282–-3297}
}

CITE-CITE-CITE-CITE-CITE-CITE-CITE-CITE-CITE-CITE-CITE-CITE-CITE

Neighbor list info ...
  update: every = 1 steps, delay = 0 steps, check = yes
  max neighbors/atom: 2000, page size: 100000
  master list distance cutoff = 5.77118
  ghost atom cutoff = 5.77118
  binsize = 2.88559, bins = 8 8 8
  1 neighbor lists, perpetual/occasional/extra = 1 0 0
  (1) pair sw, perpetual
      attributes: full, newton on
      pair build: full/bin/atomonly
      stencil: full/bin/3d
      bin: standard
Per MPI rank memory allocation (min/avg/max) = 3.113 | 3.113 | 3.113 Mbytes
   Step          Temp          PotEng         KinEng         TotEng    
         0   300           -2219.7439      19.854358     -2199.8895    
     10000   299.82284     -2199.8989      19.842633     -2180.0563    
     20000   306.76656     -2201.2469      20.302177     -2180.9447    
     30000   301.70705     -2198.7709      19.967333     -2178.8035    
     40000   291.7005      -2200.191       19.305088     -2180.886     
     50000   297.74804     -2199.6896      19.705321     -2179.9843    
     60000   304.79494     -2199.9727      20.171693     -2179.801     
     70000   325.67454     -2199.537       21.55353      -2177.9835    
     80000   311.6705      -2199.4575      20.626726     -2178.8308    
     90000   308.79411     -2200.0536      20.436363     -2179.6172    
    100000   325.74955     -2199.874       21.558494     -2178.3155    
    110000   319.89026     -2201.1559      21.170719     -2179.9852    
    120000   299.30197     -2199.5822      19.808162     -2179.774     
    130000   285.44419     -2199.7088      18.891038     -2180.8178    
    140000   295.68908     -2199.2067      19.569056     -2179.6377    
    150000   309.17102     -2199.7286      20.461307     -2179.2673    
    160000   323.26875     -2199.742       21.394312     -2178.3477    
    170000   310.64861     -2199.4697      20.559096     -2178.9106    
    180000   286.61312     -2199.5353      18.968398     -2180.5669    
    190000   313.78684     -2199.9781      20.766788     -2179.2113    
    200000   315.03765     -2197.537       20.849568     -2176.6874    
    210000   310.67448     -2199.4212      20.560808     -2178.8604    
    220000   315.16031     -2200.2073      20.857685     -2179.3496    
    230000   307.26646     -2198.85        20.335261     -2178.5148    
    240000   315.84762     -2199.2566      20.903173     -2178.3535    
    250000   317.88808     -2199.7668      21.038213     -2178.7286    
    260000   319.27506     -2198.205       21.130005     -2177.075     
    270000   326.80717     -2198.3183      21.628489     -2176.6898    
    280000   336.02216     -2198.7377      22.238348     -2176.4994    
    290000   314.40737     -2199.5452      20.807855     -2178.7374    
    300000   315.15748     -2198.9026      20.857499     -2178.0451    
    310000   318.68495     -2199.6712      21.090951     -2178.5803    
    320000   326.14974     -2198.3662      21.58498      -2176.7812    
    330000   319.67595     -2198.5298      21.156536     -2177.3732    
    340000   337.14615     -2198.5745      22.312735     -2176.2617    
    350000   323.93842     -2197.597       21.438632     -2176.1583    
    360000   313.16302     -2198.1989      20.725503     -2177.4734    
    370000   319.18057     -2199.6255      21.123752     -2178.5017    
    380000   337.69856     -2199.1418      22.349294     -2176.7925    
    390000   342.0375      -2198.2395      22.63645      -2175.6031    
    400000   336.71647     -2197.4068      22.284298     -2175.1225    
    410000   312.94348     -2199.2298      20.710973     -2178.5188    
    420000   342.93779     -2197.274       22.696033     -2174.578     
    430000   344.2046      -2198.2739      22.779872     -2175.494     
    440000   325.57008     -2198.4041      21.546617     -2176.8575    
    450000   314.39416     -2197.8366      20.806981     -2177.0296    
    460000   323.13179     -2199.0808      21.385248     -2177.6956    
    470000   335.80503     -2197.2876      22.223978     -2175.0636    
    480000   338.21292     -2196.7293      22.383335     -2174.346     
    490000   320.27134     -2197.5565      21.195939     -2176.3606    
    500000   317.1051      -2197.9686      20.986394     -2176.9822    
    510000   333.06987     -2198.8448      22.042962     -2176.8018    
    520000   329.70713     -2198.8297      21.820411     -2177.0093    
    530000   344.30185     -2197.3122      22.786308     -2174.5259    
    540000   333.08615     -2197.5819      22.044039     -2175.5379    
    550000   346.87181     -2198.3048      22.956391     -2175.3484    
    560000   357.65877     -2196.0016      23.670284     -2172.3313    
    570000   342.03042     -2196.6446      22.635982     -2174.0086    
    580000   331.84676     -2195.8878      21.962015     -2173.9258    
    590000   333.74097     -2198.3758      22.087376     -2176.2885    
    600000   341.82008     -2196.822       22.622061     -2174.1999    
    610000   335.44553     -2198.0734      22.200186     -2175.8732    
    620000   329.82413     -2196.6259      21.828155     -2174.7977    
    630000   340.86761     -2197.0276      22.559025     -2174.4685    
    640000   342.15064     -2196.9349      22.643938     -2174.291     
    650000   360.37057     -2197.7496      23.849755     -2173.8999    
    660000   361.58148     -2197.8879      23.929894     -2173.958     
    670000   361.89079     -2196.946       23.950364     -2172.9956    
    680000   366.40342     -2196.4132      24.249016     -2172.1641    
    690000   357.77652     -2196.2249      23.678078     -2172.5468    
    700000   339.27321     -2195.1866      22.453507     -2172.7331    
    710000   353.30841     -2197.2954      23.382373     -2173.9131    
    720000   356.86888     -2198.1486      23.618009     -2174.5306    
    730000   354.16703     -2198.9662      23.439197     -2175.527     
    740000   345.95036     -2197.1841      22.895408     -2174.2887    
    750000   332.81238     -2197.5079      22.025921     -2175.482     
    760000   369.63708     -2198.1768      24.463023     -2173.7138    
    770000   336.64595     -2196.7698      22.279631     -2174.4902    
    780000   339.77222     -2198.1698      22.486531     -2175.6833    
    790000   378.86268     -2196.6025      25.073585     -2171.5289    
    800000   334.00057     -2197.9417      22.104557     -2175.8371    
    810000   344.31844     -2195.9588      22.787406     -2173.1714    
    820000   372.14009     -2196.4263      24.628675     -2171.7976    
    830000   355.62468     -2197.1261      23.535666     -2173.5905    
    840000   360.61824     -2195.2256      23.866146     -2171.3594    
    850000   372.87978     -2196.6681      24.677629     -2171.9904    
    860000   359.31684     -2196.2761      23.780018     -2172.496     
    870000   370.44437     -2195.3275      24.516451     -2170.8111    
    880000   367.72379     -2196.4946      24.3364       -2172.1582    
    890000   364.04982     -2197.8656      24.093252     -2173.7724    
    900000   390.78884     -2196.1188      25.862872     -2170.2559    
    910000   364.92058     -2197.3746      24.15088      -2173.2238    
    920000   365.52874     -2196.3071      24.191128     -2172.116     
    930000   367.70416     -2196.3798      24.3351       -2172.0447    
    940000   355.56887     -2197.4537      23.531973     -2173.9217    
    950000   368.56083     -2196.2286      24.391796     -2171.8368    
    960000   384.58738     -2197.6316      25.452452     -2172.1792    
    970000   384.19932     -2196.4828      25.42677      -2171.056     
    980000   347.80022     -2196.0946      23.017834     -2173.0768    
    990000   376.24569     -2196.9812      24.900389     -2172.0808    
   1000000   373.83683     -2197.6728      24.740968     -2172.9318    
   1010000   358.47566     -2195.2249      23.724348     -2171.5005    
   1020000   369.66261     -2196.4777      24.464713     -2172.013     
   1030000   386.96192     -2196.4617      25.609602     -2170.8521    
   1040000   373.19254     -2193.8362      24.698328     -2169.1378    
   1050000   364.95974     -2197.0928      24.153472     -2172.9393    
   1060000   396.64321     -2195.9092      26.250321     -2169.6589    
   1070000   382.31664     -2195.5246      25.302172     -2170.2225    
   1080000   379.27478     -2196.3046      25.100858     -2171.2038    
   1090000   371.6756      -2196.5181      24.597935     -2171.9202    
   1100000   356.94458     -2194.3172      23.623018     -2170.6942    
   1110000   360.13948     -2194.7591      23.834461     -2170.9247    
   1120000   386.60261     -2195.9292      25.585822     -2170.3434    
   1130000   379.09263     -2196.1113      25.088803     -2171.0225    
   1140000   370.60117     -2194.8534      24.526828     -2170.3266    
   1150000   390.91505     -2195.4063      25.871225     -2169.535     
   1160000   383.71631     -2197.3297      25.394804     -2171.9349    
   1170000   383.91868     -2193.8452      25.408196     -2168.437     
   1180000   367.9594      -2196.7534      24.351993     -2172.4014    
   1190000   385.71244     -2194.5966      25.52691      -2169.0697    
   1200000   377.32028     -2195.3054      24.971507     -2170.3339    
   1210000   376.70424     -2193.5484      24.930736     -2168.6176    
   1220000   364.53801     -2194.4231      24.125561     -2170.2975    
   1230000   381.41698     -2194.7843      25.242631     -2169.5416    
   1240000   382.31423     -2193.4246      25.302013     -2168.1226    
   1250000   393.92455     -2196.2578      26.070397     -2170.1874    
   1260000   391.33382     -2193.5722      25.89894      -2167.6733    
   1270000   401.76439     -2193.5519      26.589247     -2166.9626    
   1280000   414.70205     -2195.8907      27.445477     -2168.4453    
   1290000   379.20856     -2193.0874      25.096476     -2167.9909    
   1300000   382.88894     -2195.1834      25.340048     -2169.8434    
   1310000   388.0397      -2194.1586      25.68093      -2168.4777    
   1320000   377.77812     -2194.0484      25.001807     -2169.0466    
   1330000   368.2173      -2195.5255      24.369061     -2171.1564    
   1340000   416.54449     -2194.2839      27.567412     -2166.7165    
   1350000   394.89719     -2195.1467      26.134768     -2169.012     
   1360000   400.36086     -2193.9939      26.49636      -2167.4975    
   1370000   380.6566      -2193.4888      25.192309     -2168.2965    
   1380000   385.24096     -2194.8971      25.495707     -2169.4014    
   1390000   381.80874     -2194.6301      25.268558     -2169.3616    
   1400000   389.53669     -2191.4633      25.780003     -2165.6833    
   1410000   416.05216     -2195.3742      27.534829     -2167.8394    
   1420000   376.13301     -2194.2012      24.892932     -2169.3082    
   1430000   409.14716     -2193.743       27.077847     -2166.6652    
   1440000   385.84391     -2194.1114      25.535611     -2168.5757    
   1450000   392.23142     -2192.4872      25.958344     -2166.5289    
   1460000   410.25087     -2195.1079      27.150893     -2167.9571    
   1470000   402.98345     -2193.5827      26.669926     -2166.9128    
   1480000   410.12426     -2195.7685      27.142513     -2168.626     
   1490000   385.03298     -2192.5663      25.481943     -2167.0843    
   1500000   386.00185     -2193.0995      25.546063     -2167.5534    
   1510000   389.45718     -2193.7552      25.774741     -2167.9805    
   1520000   411.72003     -2193.5584      27.248123     -2166.3103    
   1530000   389.56695     -2193.8479      25.782006     -2168.0659    
   1540000   387.28798     -2191.9822      25.631181     -2166.351     
   1550000   418.12502     -2194.5982      27.672013     -2166.9262    
   1560000   396.96621     -2193.6999      26.271698     -2167.4282    
   1570000   385.39949     -2193.4458      25.506199     -2167.9396    
   1580000   417.81542     -2192.7264      27.651523     -2165.0748    
   1590000   405.85216     -2193.7433      26.859781     -2166.8835    
   1600000   400.89508     -2192.0869      26.531715     -2165.5551    
   1610000   399.65046     -2193.2793      26.449345     -2166.83      
   1620000   417.17466     -2192.3802      27.609117     -2164.7711    
   1630000   415.02621     -2193.4625      27.46693      -2165.9956    
   1640000   410.7931      -2191.8228      27.186778     -2164.636     
   1650000   406.23054     -2194.2761      26.884822     -2167.3913    
   1660000   421.68714     -2191.622       27.907759     -2163.7143    
   1670000   426.69448     -2193.1159      28.23915      -2164.8768    
   1680000   422.49419     -2192.2913      27.96117      -2164.3302    
   1690000   444.08391     -2192.4655      29.390004     -2163.0755    
   1700000   405.48932     -2191.9829      26.835768     -2165.1472    
   1710000   395.2401      -2193.1271      26.157462     -2166.9696    
   1720000   436.89276     -2192.0149      28.914085     -2163.1008    
   1730000   432.12269     -2191.7723      28.598396     -2163.1739    
   1740000   424.52687     -2193.9393      28.095695     -2165.8436    
   1750000   434.69348     -2193.353       28.768533     -2164.5844    
   1760000   424.07304     -2190.5254      28.06566      -2162.4597    
   1770000   419.81627     -2192.512       27.783942     -2164.7281    
   1780000   445.66659     -2190.6979      29.494747     -2161.2032    
   1790000   439.69679     -2193.1916      29.099659     -2164.0919    
   1800000   411.80434     -2193.319       27.253703     -2166.0653    
   1810000   424.06278     -2194.1495      28.064981     -2166.0845    
   1820000   454.05669     -2191.7161      30.050014     -2161.6661    
   1830000   414.69252     -2191.9137      27.444846     -2164.4688    
   1840000   427.89171     -2193.2174      28.318384     -2164.899     
   1850000   409.2859      -2192.7117      27.08703      -2165.6247    
   1860000   436.88592     -2192.7017      28.913632     -2163.7881    
   1870000   438.22638     -2193.87        29.002345     -2164.8677    
   1880000   392.90659     -2192.6284      26.003027     -2166.6254    
   1890000   428.53368     -2190.2613      28.360871     -2161.9005    
   1900000   422.44521     -2188.512       27.957928     -2160.5541    
   1910000   441.37584     -2192.6877      29.21078      -2163.4769    
   1920000   420.33941     -2191.2902      27.818564     -2163.4717    
   1930000   442.23757     -2191.9063      29.26781      -2162.6385    
   1940000   458.11637     -2189.6402      30.318689     -2159.3215    
   1950000   426.95335     -2192.4623      28.256282     -2164.206     
   1960000   426.48907     -2193.2083      28.225556     -2164.9828    
   1970000   474.89493     -2191.4839      31.429114     -2160.0548    
   1980000   449.61475     -2192.2767      29.756041     -2162.5207    
   1990000   449.04205     -2190.4661      29.718139     -2160.748     
   2000000   404.58265     -2192.0301      26.775763     -2165.2543    
   2010000   450.6347      -2191.0801      29.823543     -2161.2565    
   2020000   452.24415     -2191.4938      29.930058     -2161.5637    
   2030000   457.95813     -2191.3877      30.308216     -2161.0795    
   2040000   459.94754     -2190.7507      30.439877     -2160.3109    
   2050000   420.06938     -2191.4279      27.800693     -2163.6272    
   2060000   454.78283     -2190.9546      30.098071     -2160.8565    
   2070000   431.38712     -2192.1021      28.549715     -2163.5523    
   2080000   454.26227     -2190.9415      30.06362      -2160.8779    
   2090000   445.75072     -2191.9179      29.500315     -2162.4175    
   2100000   432.567       -2189.9353      28.627801     -2161.3075    
   2110000   428.62141     -2189.4948      28.366677     -2161.1282    
   2120000   441.77847     -2190.0525      29.237427     -2160.8151    
   2130000   439.77148     -2189.217       29.104602     -2160.1124    
   2140000   462.69115     -2192.0838      30.621453     -2161.4624    
   2150000   457.91621     -2190.6919      30.305442     -2160.3865    
   2160000   440.32765     -2190.6985      29.14141      -2161.5571    
   2170000   461.6644      -2189.5449      30.553501     -2158.9914    
   2180000   474.32107     -2192.7317      31.391135     -2161.3405    
   2190000   454.71989     -2191.4534      30.093905     -2161.3595    
   2200000   467.619       -2190.7785      30.947584     -2159.8309    
   2210000   477.41216     -2190.2434      31.595707     -2158.6477    
   2220000   447.1734      -2189.0138      29.594469     -2159.4193    
   2230000   458.35724     -2191.3827      30.33463      -2161.0481    
   2240000   454.55224     -2190.7022      30.08281      -2160.6194    
   2250000   436.43617     -2190.4943      28.883867     -2161.6104    
   2260000   481.1237      -2192.0796      31.841341     -2160.2382    
   2270000   486.43231     -2186.4903      32.192671     -2154.2976    
   2280000   458.54305     -2190.4815      30.346927     -2160.1346    
   2290000   458.49155     -2189.5248      30.343518     -2159.1813    
   2300000   434.71129     -2188.4489      28.769713     -2159.6792    
   2310000   450.62638     -2189.5237      29.822992     -2159.7008    
   2320000   483.00496     -2187.7013      31.965845     -2155.7354    
   2330000   459.93623     -2189.7971      30.439129     -2159.3579    
   2340000   486.41683     -2191.0666      32.191647     -2158.8749    
   2350000   461.9622      -2190.8394      30.57321      -2160.2662    
   2360000   463.96267     -2188.4262      30.705604     -2157.7206    
   2370000   461.86805     -2189.544       30.566979     -2158.9771    
   2380000   458.18419     -2188.8839      30.323177     -2158.5607    
   2390000   459.7301      -2188.6105      30.425487     -2158.185     
   2400000   482.00902     -2189.5386      31.899933     -2157.6387    
   2410000   490.6282      -2189.2204      32.47036      -2156.7501    
   2420000   422.98315     -2189.3252      27.99353      -2161.3317    
   2430000   428.49821     -2190.3163      28.358523     -2161.9578    
   2440000   517.09432     -2190.1735      34.22192      -2155.9516    
   2450000   473.6718      -2190.4421      31.348165     -2159.094     
   2460000   495.69563     -2188.2349      32.805729     -2155.4292    
   2470000   466.32492     -2188.3532      30.86194      -2157.4912    
   2480000   462.55477     -2188.3735      30.612427     -2157.7611    
   2490000   469.73881     -2190.1919      31.087876     -2159.104     
   2500000   458.65719     -2189.8354      30.354481     -2159.4809    
   2510000   472.96778     -2187.2194      31.301573     -2155.9178    
   2520000   480.78117     -2190.927       31.818672     -2159.1084    
   2530000   466.72821     -2186.4065      30.888631     -2155.5178    
   2540000   501.25892     -2190.5406      33.173914     -2157.3667    
   2550000   458.11582     -2187.8165      30.318652     -2157.4978    
   2560000   502.88202     -2188.1046      33.281333     -2154.8232    
   2570000   482.16648     -2190.1257      31.910353     -2158.2153    
   2580000   477.4572      -2188.3202      31.598688     -2156.7215    
   2590000   525.4009      -2189.3391      34.771659     -2154.5675    
   2600000   496.53656     -2188.6397      32.861383     -2155.7783    
   2610000   473.19553     -2189.7642      31.316645     -2158.4475    
   2620000   487.83986     -2186.6852      32.285824     -2154.3994    
   2630000   471.13478     -2188.5244      31.180262     -2157.3441    
   2640000   453.30928     -2190.3977      30.000549     -2160.3972    
   2650000   443.33894     -2188.0543      29.3407       -2158.7136    
   2660000   511.98351     -2186.4227      33.88368      -2152.5391    
   2670000   472.19892     -2187.4048      31.250688     -2156.1541    
   2680000   481.14431     -2188.1115      31.842705     -2156.2688    
   2690000   479.61787     -2187.9033      31.741684     -2156.1616    
   2700000   507.97274     -2186.9043      33.618243     -2153.286     
   2710000   475.91281     -2189.2765      31.496478     -2157.78      
   2720000   471.07097     -2188.3701      31.176039     -2157.1941    
   2730000   497.55614     -2185.7774      32.92886      -2152.8486    
   2740000   474.73355     -2189.0176      31.418433     -2157.5992    
   2750000   450.03222     -2187.3157      29.78367      -2157.532     
   2760000   505.70839     -2186.7743      33.468385     -2153.3059    
   2770000   488.72873     -2189.1012      32.344651     -2156.7566    
   2780000   487.17594     -2187.8707      32.241885     -2155.6288    
   2790000   514.46089     -2187.5438      34.047636     -2153.4962    
   2800000   482.01808     -2188.9637      31.900532     -2157.0632    
   2810000   505.54221     -2188.7677      33.457387     -2155.3103    
   2820000   507.43417     -2187.1359      33.582599     -2153.5533    
   2830000   488.68108     -2187.0513      32.341497     -2154.7098    
   2840000   472.11874     -2188.3696      31.245382     -2157.1243    
   2850000   479.98702     -2187.3502      31.766114     -2155.5841    
   2860000   516.51557     -2188.5138      34.183617     -2154.3302    
   2870000   456.32117     -2184.9281      30.19988      -2154.7282    
   2880000   546.47733     -2187.111       36.166523     -2150.9444    
   2890000   473.56955     -2187.8965      31.341398     -2156.5551    
   2900000   511.72554     -2187.409       33.866607     -2153.5424    
   2910000   512.37088     -2187.6314      33.909317     -2153.7221    
   2920000   511.04082     -2187.1064      33.821292     -2153.2851    
   2930000   509.21952     -2188.4999      33.700756     -2154.7992    
   2940000   509.19068     -2187.4413      33.698848     -2153.7425    
   2950000   482.29371     -2188.5021      31.918774     -2156.5833    
   2960000   501.45699     -2187.177       33.187023     -2153.99      
   2970000   506.82776     -2187.1498      33.542466     -2153.6074    
   2980000   490.4984      -2186.3378      32.46177      -2153.876     
   2990000   508.22625     -2185.1777      33.63502      -2151.5427    
   3000000   507.20514     -2184.6324      33.567442     -2151.0649    
   3010000   497.61448     -2187.4646      32.932721     -2154.5318    
   3020000   527.50689     -2185.6527      34.911036     -2150.7417    
   3030000   535.84587     -2185.4382      35.46292      -2149.9753    
   3040000   494.99973     -2185.5159      32.759673     -2152.7562    
   3050000   507.31638     -2182.8808      33.574804     -2149.306     
   3060000   524.24838     -2185.8496      34.695384     -2151.1543    
   3070000   479.47136     -2186.7567      31.731987     -2155.0247    
   3080000   532.09557     -2187.3478      35.21472      -2152.1331    
   3090000   503.68566     -2187.5924      33.334518     -2154.2579    
   3100000   527.34721     -2184.7637      34.900468     -2149.8632    
   3110000   516.41837     -2186.9269      34.177184     -2152.7498    
   3120000   505.39591     -2184.5816      33.447705     -2151.1339    
   3130000   529.97295     -2186.3996      35.074243     -2151.3253    
   3140000   518.37176     -2184.2132      34.306462     -2149.9068    
   3150000   526.63111     -2186.0136      34.853076     -2151.1606    
   3160000   521.50864     -2184.8493      34.514065     -2150.3352    
   3170000   525.62323     -2185.1832      34.786373     -2150.3968    
   3180000   532.61088     -2185.9934      35.248824     -2150.7446    
   3190000   504.42335     -2183.7439      33.38334      -2150.3606    
   3200000   539.35537     -2184.0813      35.695182     -2148.3862    
   3210000   500.50408     -2185.2045      33.123958     -2152.0805    
   3220000   512.8172      -2188.4752      33.938855     -2154.5364    
   3230000   491.70909     -2185.4868      32.541895     -2152.945     
   3240000   515.79043     -2183.1492      34.135627     -2149.0135    
   3250000   547.62603     -2185.5113      36.242545     -2149.2688    
   3260000   505.05343     -2187.9611      33.425039     -2154.5361    
   3270000   539.57887     -2185.6525      35.709974     -2149.9425    
   3280000   548.39034     -2184.1381      36.293128     -2147.845     
   3290000   496.50525     -2185.2541      32.859311     -2152.3948    
   3300000   524.49874     -2183.3525      34.711953     -2148.6405    
   3310000   537.54364     -2183.9543      35.57528      -2148.379     
   3320000   515.10908     -2185.5785      34.090534     -2151.4879    
   3330000   526.65846     -2184.1751      34.854886     -2149.3202    
   3340000   500.95286     -2186.4254      33.153659     -2153.2717    
   3350000   513.33785     -2184.4839      33.973312     -2150.5106    
   3360000   524.11021     -2186.0696      34.68624      -2151.3834    
   3370000   538.00111     -2185.9051      35.605556     -2150.2995    
   3380000   532.54424     -2184.3413      35.244414     -2149.0968    
   3390000   537.73347     -2180.3529      35.587843     -2144.765     
   3400000   527.5429      -2185.1147      34.913419     -2150.2013    
   3410000   562.89918     -2183.1986      37.25334      -2145.9453    
   3420000   554.63395     -2185.5656      36.706337     -2148.8592    
   3430000   557.77616     -2185.9702      36.914293     -2149.0559    
   3440000   525.17592     -2183.4044      34.75677      -2148.6476    
   3450000   540.53217     -2181.5112      35.773065     -2145.7381    
   3460000   523.7662      -2184.825       34.663473     -2150.1616    
   3470000   531.59328     -2183.2777      35.181478     -2148.0962    
   3480000   541.13676     -2187.1272      35.813077     -2151.3141    
   3490000   492.31847     -2184.818       32.582224     -2152.2357    
   3500000   553.04275     -2182.7999      36.60103      -2146.1989    
   3510000   513.01958     -2184.7438      33.952249     -2150.7915    
   3520000   527.92136     -2186.4918      34.938466     -2151.5533    
   3530000   538.58112     -2184.4061      35.643942     -2148.7622    
   3540000   572.24874     -2186.2661      37.872105     -2148.394     
   3550000   567.40127     -2181.17        37.551294     -2143.6187    
   3560000   564.59087     -2183.791       37.365298     -2146.4257    
   3570000   536.28343     -2185.3681      35.491878     -2149.8763    
   3580000   595.5724      -2186.2558      39.415693     -2146.8401    
   3590000   540.72867     -2182.391       35.786069     -2146.605     
   3600000   506.60265     -2185.6525      33.527568     -2152.1249    
   3610000   525.04787     -2185.2795      34.748295     -2150.5312    
   3620000   593.6218      -2183.779       39.2866       -2144.4924    
   3630000   551.95615     -2182.4695      36.529117     -2145.9403    
   3640000   545.53418     -2182.6974      36.104104     -2146.5933    
   3650000   541.02525     -2179.5419      35.805697     -2143.7362    
   3660000   557.93575     -2181.783       36.924854     -2144.8582    
   3670000   539.61767     -2183.0629      35.712542     -2147.3504    
   3680000   560.52498     -2185.1951      37.096212     -2148.0989    
   3690000   539.54448     -2181.4194      35.707698     -2145.7117    
   3700000   565.66306     -2183.5278      37.436257     -2146.0915    
   3710000   560.39151     -2184.5051      37.087379     -2147.4177    
   3720000   540.36491     -2181.849       35.761995     -2146.087     
   3730000   566.46702     -2185.1456      37.489464     -2147.6561    
   3740000   530.53425     -2184.934       35.111391     -2149.8226    
   3750000   535.07014     -2183.1656      35.411581     -2147.754     
   3760000   595.50732     -2182.1324      39.411385     -2142.721     
   3770000   574.10903     -2182.5641      37.995221     -2144.5688    
   3780000   548.8238      -2181.297       36.321814     -2144.9752    
   3790000   566.72383     -2180.4614      37.50646      -2142.9549    
   3800000   567.5602      -2182.4244      37.561812     -2144.8626    
   3810000   588.91857     -2182.3996      38.975334     -2143.4243    
   3820000   568.97646     -2181.0516      37.655541     -2143.3961    
   3830000   540.37799     -2182.1895      35.762861     -2146.4266    
   3840000   557.65218     -2182.3566      36.906087     -2145.4505    
   3850000   583.31489     -2185.264       38.604476     -2146.6595    
   3860000   547.87632     -2181.2138      36.259109     -2144.9547    
   3870000   547.08868     -2184.4803      36.206982     -2148.2733    
   3880000   566.60584     -2181.9093      37.498651     -2144.4107    
   3890000   551.20646     -2182.7899      36.479502     -2146.3104    
   3900000   551.00215     -2181.3245      36.46598      -2144.8585    
   3910000   562.41705     -2180.8441      37.221432     -2143.6227    
   3920000   570.52326     -2183.5428      37.757911     -2145.7848    
   3930000   567.31524     -2179.6315      37.5456       -2142.0859    
   3940000   576.11151     -2183.9493      38.127748     -2145.8216    
   3950000   518.28181     -2182.0073      34.300509     -2147.7068    
   3960000   579.98083     -2182.7604      38.383824     -2144.3765    
   3970000   543.65084     -2181.1825      35.979462     -2145.2031    
   3980000   567.72564     -2179.6876      37.572761     -2142.1148    
   3990000   603.43013     -2182.4699      39.935727     -2142.5341    
   4000000   570.9615      -2180.5977      37.786914     -2142.8108    
   4010000   591.3708      -2179.3226      39.137626     -2140.1849    
   4020000   557.36543     -2183.8255      36.88711      -2146.9384    
   4030000   568.90866     -2182.8483      37.651055     -2145.1972    
   4040000   613.37443     -2182.0011      40.593852     -2141.4073    
   4050000   594.9405      -2182.4074      39.373873     -2143.0335    
   4060000   578.05535     -2181.6285      38.256393     -2143.3721    
   4070000   581.25015     -2183.0028      38.467829     -2144.535     
   4080000   586.94481     -2182.9119      38.844708     -2144.0672    
   4090000   557.31759     -2182.5281      36.883944     -2145.6441    
   4100000   587.27579     -2182.1246      38.866613     -2143.258     
   4110000   548.23424     -2183.2224      36.282797     -2146.9396    
   4120000   604.41546     -2181.2569      40.000937     -2141.2559    
   4130000   585.8964      -2177.6222      38.775323     -2138.8469    
   4140000   597.35106     -2181.8582      39.533407     -2142.3248    
   4150000   614.69819     -2181.8153      40.68146      -2141.1339    
   4160000   572.3506      -2180.9999      37.878846     -2143.121     
   4170000   591.93754     -2179.6485      39.175133     -2140.4733    
   4180000   626.1083      -2181.6839      41.436595     -2140.2473    
   4190000   550.90908     -2181.1607      36.459821     -2144.7009    
   4200000   568.36081     -2181.9298      37.614797     -2144.315     
   4210000   620.52283     -2179.7426      41.066942     -2138.6757    
   4220000   621.73237     -2179.3931      41.14699      -2138.2461    
   4230000   623.07738     -2181.3267      41.236005     -2140.0907    
   4240000   615.93594     -2181.2796      40.763376     -2140.5162    
   4250000   585.477       -2181.1532      38.747567     -2142.4056    
   4260000   592.00365     -2178.7697      39.179509     -2139.5902    
   4270000   602.82703     -2181.619       39.895813     -2141.7232    
   4280000   624.54544     -2178.0702      41.333163     -2136.737     
   4290000   569.28909     -2180.8601      37.676232     -2143.1839    
   4300000   574.31814     -2180.8423      38.009061     -2142.8332    
   4310000   594.54524     -2180.9802      39.347714     -2141.6325    
   4320000   603.70009     -2180.1192      39.953593     -2140.1656    
   4330000   604.26827     -2180.8341      39.991196     -2140.8429    
   4340000   626.23293     -2177.8735      41.444843     -2136.4286    
   4350000   605.84469     -2179.9431      40.095525     -2139.8476    
   4360000   583.32059     -2178.8375      38.604854     -2140.2326    
   4370000   642.41094     -2179.0909      42.515523     -2136.5754    
   4380000   608.34288     -2179.9729      40.260858     -2139.712     
   4390000   610.2779      -2179.5524      40.38892      -2139.1635    
   4400000   602.49625     -2179.3226      39.873922     -2139.4487    
   4410000   592.26015     -2181.8248      39.196484     -2142.6283    
   4420000   611.43102     -2182.1703      40.465235     -2141.7051    
   4430000   609.02666     -2181.1842      40.306112     -2140.8781    
   4440000   577.37941     -2180.7051      38.211659     -2142.4934    
   4450000   604.81345     -2180.5844      40.027277     -2140.5571    
   4460000   602.29543     -2179.0296      39.860631     -2139.169     
   4470000   610.50006     -2179.6727      40.403623     -2139.269     
   4480000   577.98324     -2179.5107      38.251621     -2141.2591    
   4490000   637.58855     -2179.921       42.196371     -2137.7247    
   4500000   622.92343     -2180.7661      41.225817     -2139.5402    
   4510000   611.28473     -2175.5447      40.455553     -2135.0891    
   4520000   621.84575     -2180.033       41.154494     -2138.8785    
   4530000   631.69309     -2175.0968      41.806203     -2133.2906    
   4540000   652.51372     -2180.3774      43.184137     -2137.1932    
   4550000   575.91763     -2177.0901      38.114917     -2138.9752    
   4560000   636.87277     -2182.3539      42.149        -2140.2049    
   4570000   568.18136     -2179.5672      37.602921     -2141.9643    
   4580000   620.98745     -2180.4266      41.097691     -2139.329     
   4590000   615.76901     -2177.7657      40.752329     -2137.0133    
   4600000   647.61276     -2180.4835      42.859786     -2137.6237    
   4610000   610.21045     -2176.4587      40.384456     -2136.0742    
   4620000   653.16518     -2179.291       43.227251     -2136.0637    
   4630000   593.21601     -2179.0659      39.259744     -2139.8062    
   4640000   612.63919     -2181.3699      40.545194     -2140.8247    
   4650000   621.1751      -2178.2985      41.11011      -2137.1884    
   4660000   636.74117     -2179.063       42.140291     -2136.9227    
   4670000   619.45549     -2178.3201      40.996304     -2137.3238    
   4680000   596.75815     -2178.9191      39.494167     -2139.4249    
   4690000   637.54756     -2179.2996      42.193659     -2137.106     
   4700000   672.03055     -2178.0574      44.475784     -2133.5816    
   4710000   623.05809     -2180.5143      41.234729     -2139.2796    
   4720000   627.04651     -2179.7445      41.498687     -2138.2458    
   4730000   638.7813      -2178.916       42.275309     -2136.6407    
   4740000   632.75073     -2179.7996      41.876199     -2137.9234    
   4750000   625.66798     -2178.2252      41.407454     -2136.8177    
   4760000   639.45415     -2177.8453      42.319839     -2135.5254    
   4770000   632.83943     -2178.0248      41.88207      -2136.1427    
   4780000   628.17519     -2178.7515      41.573384     -2137.1781    
   4790000   633.48142     -2179.2673      41.924557     -2137.3427    
   4800000   629.25066     -2174.8373      41.64456      -2133.1927    
   4810000   647.63214     -2175.5144      42.861069     -2132.6533    
   4820000   662.92159     -2175.8839      43.872942     -2132.011     
   4830000   653.39796     -2177.8942      43.242657     -2134.6515    
   4840000   665.12117     -2176.3169      44.018513     -2132.2984    
   4850000   670.89229     -2176.147       44.400453     -2131.7465    
   4860000   621.21876     -2174.1808      41.113        -2133.0678    
   4870000   615.91815     -2176.6416      40.762199     -2135.8794    
   4880000   630.09823     -2178.1065      41.700654     -2136.4058    
   4890000   654.31719     -2178.601       43.303493     -2135.2975    
   4900000   643.69348     -2179.0002      42.600403     -2136.3998    
   4910000   643.73263     -2178.7377      42.602994     -2136.1347    
   4920000   680.69117     -2174.8901      45.048954     -2129.8412    
   4930000   634.03811     -2175.6522      41.9614       -2133.6908    
   4940000   642.25424     -2176.9769      42.505153     -2134.4717    
   4950000   649.06629     -2180.3412      42.955982     -2137.3852    
   4960000   622.8677      -2180.6847      41.222128     -2139.4625    
   4970000   600.70907     -2175.321       39.755643     -2135.5653    
   4980000   660.94572     -2179.5422      43.742177     -2135.8001    
   4990000   641.28369     -2176.34        42.44092      -2133.8991    
   5000000   681.23127     -2177.691       45.084699     -2132.6063    
   5010000   631.48484     -2176.4211      41.792421     -2134.6286    
   5020000   705.14636     -2175.3469      46.667428     -2128.6794    
   5030000   650.39992     -2176.877       43.044243     -2133.8327    
   5040000   611.73273     -2176.2403      40.485203     -2135.7551    
   5050000   643.31626     -2175.9523      42.575438     -2133.3769    
   5060000   617.77098     -2176.2289      40.884821     -2135.3441    
   5070000   679.23616     -2175.2985      44.95266      -2130.3459    
   5080000   645.49511     -2176.1486      42.719637     -2133.4289    
   5090000   693.15419     -2176.4775      45.873772     -2130.6038    
   5100000   658.90521     -2175.9468      43.607133     -2132.3397    
   5110000   669.0562      -2177.8182      44.278939     -2133.5392    
   5120000   643.66557     -2174.9044      42.598556     -2132.3059    
   5130000   672.48162     -2174.4608      44.505637     -2129.9552    
   5140000   655.99907     -2176.2149      43.414802     -2132.8001    
   5150000   638.61301     -2177.6043      42.264172     -2135.3401    
   5160000   670.53797     -2173.6171      44.377004     -2129.2401    
   5170000   655.20019     -2177.4091      43.361931     -2134.0472    
   5180000   685.62087     -2173.5168      45.375208     -2128.1416    
   5190000   627.72403     -2176.9797      41.543526     -2135.4362    
   5200000   675.66614     -2178.5653      44.716392     -2133.8489    
   5210000   644.8902      -2172.666       42.679604     -2129.9864    
   5220000   677.03901     -2176.8343      44.80725      -2132.027     
   5230000   646.61537     -2177.7904      42.793777     -2134.9966    
   5240000   695.99386     -2172.7493      46.061705     -2126.6876    
   5250000   682.14936     -2175.6796      45.145459     -2130.5341    
   5260000   674.68356     -2177.5692      44.651364     -2132.9178    
   5270000   676.58607     -2179.0533      44.777274     -2134.2761    
   5280000   699.33093     -2175.4085      46.282556     -2129.1259    
   5290000   630.99586     -2173.6294      41.76006      -2131.8693    
   5300000   673.02832     -2178.7608      44.541818     -2134.219     
   5310000   706.48913     -2175.5076      46.756295     -2128.7513    
   5320000   642.72344     -2176.0036      42.536205     -2133.4674    
   5330000   710.49656     -2174.5809      47.021511     -2127.5594    
   5340000   679.1793      -2174.2089      44.948897     -2129.26      
   5350000   608.70252     -2175.4378      40.28466      -2135.1531    
   5360000   658.70473     -2176.5853      43.593866     -2132.9915    
   5370000   701.69982     -2174.8016      46.439332     -2128.3622    
   5380000   651.40811     -2177.4048      43.110967     -2134.2938    
   5390000   645.61274     -2173.96        42.727422     -2131.2326    
   5400000   682.22651     -2173.54        45.150565     -2128.3895    
   5410000   662.64947     -2175.1465      43.854933     -2131.2916    
   5420000   664.28651     -2174.4004      43.963274     -2130.4371    
   5430000   693.65233     -2176.0036      45.90674      -2130.0968    
   5440000   718.21102     -2174.8198      47.532063     -2127.2877    
   5450000   702.16568     -2174.0406      46.470163     -2127.5705    
   5460000   650.88049     -2177.7829      43.076048     -2134.7068    
   5470000   712.30355     -2172.7712      47.1411       -2125.6301    
   5480000   667.98026     -2175.2357      44.207732     -2131.028     
   5490000   653.01319     -2173.0455      43.217193     -2129.8283    
   5500000   658.95482     -2174.6644      43.610417     -2131.054     
   5510000   657.38067     -2175.1309      43.506238     -2131.6246    
   5520000   733.25508     -2172.6309      48.527697     -2124.1032    
   5530000   712.61274     -2175.3527      47.161562     -2128.1912    
   5540000   654.13284     -2172.7541      43.291292     -2129.4628    
   5550000   716.30018     -2176.3746      47.405602     -2128.969     
   5560000   737.95905     -2175.5535      48.839011     -2126.7145    
   5570000   727.72426     -2173.5003      48.16166      -2125.3386    
   5580000   680.20016     -2171.1776      45.016459     -2126.1612    
   5590000   658.97462     -2175.0517      43.611727     -2131.44      
   5600000   657.91865     -2172.1809      43.541842     -2128.639     
   5610000   660.17721     -2174.9511      43.691316     -2131.2597    
   5620000   653.27877     -2173.1192      43.234769     -2129.8844    
   5630000   750.64013     -2174.5502      49.67826      -2124.872     
   5640000   678.78656     -2175.5133      44.922905     -2130.5903    
   5650000   722.01891     -2177.498       47.784074     -2129.7139    
   5660000   697.69023     -2175.7109      46.173972     -2129.5369    
   5670000   721.21259     -2172.361       47.73071      -2124.6303    
   5680000   668.79156     -2177.1679      44.261424     -2132.9065    
   5690000   703.85244     -2174.6274      46.581795     -2128.0456    
   5700000   699.55544     -2174.9629      46.297414     -2128.6655    
   5710000   669.94554     -2172.3591      44.337796     -2128.0213    
   5720000   696.85964     -2174.4516      46.119003     -2128.3326    
   5730000   711.44016     -2174.7418      47.08396      -2127.6578    
   5740000   732.76476     -2170.927       48.495247     -2122.4317    
   5750000   742.31368     -2172.3427      49.127206     -2123.2155    
   5760000   689.87656     -2176.0963      45.656855     -2130.4394    
   5770000   715.95638     -2174.254       47.382848     -2126.8711    
   5780000   735.32768     -2174.9334      48.664864     -2126.2685    
   5790000   684.77792     -2171.22        45.319421     -2125.9006    
   5800000   723.39679     -2169.2908      47.875264     -2121.4155    
   5810000   718.76332     -2171.2466      47.568615     -2123.678     
   5820000   718.18063     -2171.3231      47.530052     -2123.793     
   5830000   696.49881     -2168.9647      46.095123     -2122.8696    
   5840000   696.26551     -2171.8622      46.079683     -2125.7826    
   5850000   724.28703     -2171.0887      47.934181     -2123.1545    
   5860000   715.82244     -2170.0836      47.373984     -2122.7096    
   5870000   705.44625     -2173.486       46.687276     -2126.7987    
   5880000   696.81074     -2171.2405      46.115767     -2125.1247    
   5890000   704.52228     -2170.8925      46.626126     -2124.2664    
   5900000   673.75877     -2173.0821      44.59016      -2128.4919    
   5910000   735.3604      -2171.3196      48.667029     -2122.6526    
   5920000   728.78285     -2171.1995      48.231719     -2122.9677    
   5930000   720.14792     -2171.3863      47.660249     -2123.7261    
   5940000   688.01312     -2176.3649      45.53353      -2130.8314    
   5950000   742.15128     -2172.2172      49.116458     -2123.1008    
   5960000   679.27744     -2169.5145      44.955392     -2124.5591    
   5970000   681.36703     -2172.2656      45.093684     -2127.1719    
   5980000   702.56582     -2167.9236      46.496645     -2121.4269    
   5990000   730.44402     -2172.289       48.341657     -2123.9474    
   6000000   706.16503     -2173.395       46.734845     -2126.6602    
   6010000   757.81008     -2171.2735      50.152776     -2121.1207    
   6020000   744.75247     -2173.6621      49.288608     -2124.3735    
   6030000   755.63746     -2171.9698      50.00899      -2121.9608    
   6040000   756.64329     -2171.7591      50.075557     -2121.6836    
   6050000   713.8808      -2171.955       47.245484     -2124.7095    
   6060000   712.98532     -2170.4442      47.18622      -2123.258     
   6070000   713.22338     -2172.5042      47.201975     -2125.3022    
   6080000   692.0914      -2172.0138      45.803435     -2126.2103    
   6090000   762.08632     -2172.6049      50.435783     -2122.1691    
   6100000   737.62439     -2171.7229      48.816863     -2122.906     
   6110000   752.15767     -2171.6286      49.778693     -2121.8499    
   6120000   715.53426     -2171.0087      47.354912     -2123.6538    
   6130000   719.99342     -2173.1658      47.650024     -2125.5158    
   6140000   749.43167     -2170.3177      49.598283     -2120.7195    
   6150000   767.96755     -2172.703       50.82501      -2121.878     
   6160000   691.8825      -2170.4006      45.78961      -2124.6109    
   6170000   688.07269     -2169.3415      45.537472     -2123.804     
   6180000   725.77852     -2171.445       48.032889     -2123.4121    
   6190000   753.38068     -2173.5873      49.859633     -2123.7277    
   6200000   723.86952     -2172.6023      47.906549     -2124.6957    
   6210000   788.37436     -2165.4849      52.175557     -2113.3093    
   6220000   729.62875     -2172.7661      48.287702     -2124.4784    
   6230000   707.90581     -2172.9074      46.850052     -2126.0574    
   6240000   765.22594     -2167.3639      50.643567     -2116.7203    
   6250000   720.24624     -2169.1883      47.666756     -2121.5215    
   6260000   732.48001     -2170.3337      48.476402     -2121.8573    
   6270000   740.39094     -2171.6513      48.999957     -2122.6514    
   6280000   726.83952     -2174.348       48.103108     -2126.2449    
   6290000   761.18914     -2171.68        50.376406     -2121.3036    
   6300000   736.43991     -2169.9571      48.738473     -2121.2186    
   6310000   751.88164     -2172.4322      49.760425     -2122.6718    
   6320000   738.61505     -2170.9383      48.882426     -2122.0559    
   6330000   745.58383     -2171.3012      49.343628     -2121.9575    
   6340000   789.05562     -2172.7122      52.220643     -2120.4915    
   6350000   756.71656     -2170.5781      50.080406     -2120.4977    
   6360000   760.27319     -2169.1661      50.315788     -2118.8503    
   6370000   779.60131     -2168.858       51.594946     -2117.2631    
   6380000   732.41334     -2170.3674      48.471989     -2121.8954    
   6390000   725.82015     -2169.6122      48.035644     -2121.5766    
   6400000   753.42152     -2168.3105      49.862336     -2118.4481    
   6410000   760.7309      -2166.2194      50.34608      -2115.8734    
   6420000   688.54437     -2169.7347      45.568689     -2124.166     
   6430000   780.21696     -2168.1218      51.63569      -2116.4861    
   6440000   766.90145     -2169.3842      50.754454     -2118.6298    
   6450000   799.61245     -2168.4852      52.919307     -2115.5658    
   6460000   728.99942     -2170.5648      48.246052     -2122.3188    
   6470000   734.98095     -2169.5847      48.641917     -2120.9428    
   6480000   769.87797     -2168.1769      50.951443     -2117.2254    
   6490000   748.08689     -2170.1805      49.509284     -2120.6712    
   6500000   779.26476     -2169.2009      51.572673     -2117.6283    
   6510000   714.22229     -2165.4556      47.268084     -2118.1875    
   6520000   725.93471     -2169.8327      48.043226     -2121.7895    
   6530000   745.55754     -2170.7206      49.341888     -2121.3788    
   6540000   779.33249     -2169.3898      51.577155     -2117.8127    
   6550000   777.24093     -2170.3167      51.438733     -2118.878     
   6560000   822.2263      -2169.8153      54.415918     -2115.3994    
   6570000   715.89778     -2171.317       47.37897      -2123.938     
   6580000   767.03192     -2171.0465      50.763089     -2120.2835    
   6590000   802.89136     -2168.1419      53.136309     -2115.0056    
   6600000   777.52508     -2174.0117      51.457538     -2122.5542    
   6610000   750.53891     -2168.1721      49.671562     -2118.5005    
   6620000   788.96297     -2169.2813      52.214511     -2117.0668    
   6630000   756.70813     -2166.3734      50.079848     -2116.2936    
   6640000   723.67389     -2167.1134      47.893602     -2119.2198    
   6650000   727.4446      -2172.1626      48.143152     -2124.0194    
   6660000   795.6441      -2167.5092      52.656677     -2114.8525    
   6670000   794.37644     -2169.1244      52.572782     -2116.5516    
   6680000   764.8803      -2168.9687      50.620692     -2118.348     
   6690000   801.69427     -2169.3069      53.057084     -2116.2498    
   6700000   727.95359     -2165.7372      48.176838     -2117.5604    
   6710000   786.33597     -2168.0434      52.040653     -2116.0028    
   6720000   738.26572     -2165.3146      48.859307     -2116.4553    
   6730000   785.00378     -2170.2737      51.952487     -2118.3212    
   6740000   724.6823      -2166.9875      47.96034      -2119.0272    
   6750000   785.6804      -2171.1999      51.997267     -2119.2026    
   6760000   796.59997     -2170.7546      52.719937     -2118.0347    
   6770000   795.01438     -2167.1927      52.615001     -2114.5777    
   6780000   747.36253     -2165.0564      49.461344     -2115.595     
   6790000   765.89834     -2165.0217      50.688067     -2114.3336    
   6800000   803.27721     -2169.3884      53.161845     -2116.2266    
   6810000   769.2012      -2168.6152      50.906654     -2117.7085    
   6820000   838.11576     -2167.9139      55.467502     -2112.4464    
   6830000   768.7135      -2167.9496      50.874377     -2117.0753    
   6840000   770.25159     -2168.3519      50.97617      -2117.3757    
   6850000   752.77693     -2169.9414      49.819676     -2120.1218    
   6860000   843.66152     -2168.5902      55.834527     -2112.7557    
   6870000   798.64315     -2168.1589      52.855158     -2115.3037    
   6880000   755.97128     -2165.4652      50.031082     -2115.4341    
   6890000   753.37196     -2167.071       49.859056     -2117.2119    
   6900000   769.47208     -2167.9131      50.924581     -2116.9886    
   6910000   786.76167     -2168.9319      52.068827     -2116.863     
   6920000   747.48615     -2167.3773      49.469526     -2117.9078    
   6930000   833.11059     -2167.9287      55.136254     -2112.7924    
   6940000   755.47808     -2165.8941      49.998442     -2115.8957    
   6950000   837.99072     -2164.8579      55.459227     -2109.3987    
   6960000   802.5886      -2170.0033      53.116272     -2116.887     
   6970000   814.63639     -2167.4624      53.913609     -2113.5488    
   6980000   770.31104     -2167.2063      50.980105     -2116.2262    
   6990000   737.34298     -2164.0011      48.798239     -2115.2029    
   7000000   776.15218     -2168.6389      51.366678     -2117.2723    
   7010000   789.44467     -2165.5456      52.246391     -2113.2992    
   7020000   789.3266      -2170.9807      52.238577     -2118.7421    
   7030000   852.28454     -2166.799       56.405209     -2110.3938    
   7040000   799.40247     -2166.8282      52.90541      -2113.9228    
   7050000   779.71623     -2165.3959      51.602552     -2113.7933    
   7060000   780.80497     -2164.4392      51.674605     -2112.7646    
   7070000   803.61189     -2166.5792      53.183995     -2113.3952    
   7080000   799.85605     -2164.0582      52.935429     -2111.1228    
   7090000   801.78023     -2165.6022      53.062773     -2112.5394    
   7100000   843.2071      -2166.1475      55.804453     -2110.343     
   7110000   851.70342     -2164.0522      56.366749     -2107.6854    
   7120000   762.33485     -2167.2644      50.452231     -2116.8121    
   7130000   796.35017     -2165.6579      52.703405     -2112.9545    
   7140000   826.02514     -2161.778       54.66733      -2107.1107    
   7150000   825.01581     -2164.4292      54.600531     -2109.8287    
   7160000   855.23414     -2167.654       56.600417     -2111.0536    
   7170000   804.99378     -2166.4811      53.275449     -2113.2056    
   7180000   717.46857     -2163.2782      47.482927     -2115.7953    
   7190000   805.80956     -2165.6202      53.329439     -2112.2907    
   7200000   801.63402     -2163.23        53.053097     -2110.1769    
   7210000   808.88846     -2168.4687      53.533204     -2114.9355    
   7220000   823.87108     -2166.8067      54.524772     -2112.2819    
   7230000   748.62613     -2166.5423      49.544971     -2116.9973    
   7240000   793.56318     -2165.7478      52.518959     -2113.2289    
   7250000   779.25956     -2168.1639      51.572328     -2116.5916    
   7260000   818.39805     -2161.0672      54.162561     -2106.9047    
   7270000   770.62002     -2167.1829      51.000553     -2116.1823    
   7280000   807.02576     -2165.4447      53.409929     -2112.0348    
   7290000   836.36038     -2166.8104      55.351329     -2111.459     
   7300000   849.41113     -2164.2997      56.215043     -2108.0847    
   7310000   793.93984     -2163.6833      52.543887     -2111.1394    
   7320000   841.47478     -2163.7265      55.689806     -2108.0367    
   7330000   774.80887     -2161.0929      51.277776     -2109.8151    
   7340000   830.68018     -2160.954       54.975406     -2105.9786    
   7350000   778.35035     -2164.576       51.512156     -2113.0639    
   7360000   839.05452     -2161.4159      55.52963      -2105.8862    
   7370000   790.75762     -2166.2502      52.333284     -2113.9169    
   7380000   827.04102     -2163.9136      54.734562     -2109.179     
   7390000   811.02135     -2165.2645      53.674362     -2111.5901    
   7400000   826.35734     -2166.0457      54.689316     -2111.3564    
   7410000   813.03841     -2164.6115      53.807853     -2110.8037    
   7420000   870.63256     -2165.1252      57.619502     -2107.5057    
   7430000   823.62978     -2164.9312      54.508803     -2110.4224    
   7440000   814.06281     -2164.8252      53.875649     -2110.9496    
   7450000   806.09011     -2165.7368      53.348006     -2112.3888    
   7460000   824.58804     -2163.0964      54.572221     -2108.5242    
   7470000   836.86781     -2163.9408      55.384911     -2108.5559    
   7480000   834.86198     -2165.1188      55.252163     -2109.8667    
   7490000   807.70205     -2164.3246      53.454686     -2110.8699    
   7500000   758.57181     -2159.4851      50.203188     -2109.2819    
   7510000   862.00909     -2162.4201      57.048791     -2105.3713    
   7520000   786.88841     -2165.9013      52.077215     -2113.8241    
   7530000   813.77581     -2161.99        53.856655     -2108.1333    
   7540000   838.04631     -2159.2201      55.462906     -2103.7572    
   7550000   887.32622     -2165.2579      58.724309     -2106.5336    
   7560000   856.12979     -2164.368       56.659692     -2107.7083    
   7570000   837.39124     -2161.4164      55.419553     -2105.9968    
   7580000   829.3503      -2158.1874      54.887394     -2103.3       
   7590000   828.71484     -2162.8294      54.845338     -2107.9841    
   7600000   790.86011     -2165.0189      52.340067     -2112.6788    
   7610000   878.96168     -2164.778       58.170734     -2106.6073    
   7620000   850.82142     -2165.0132      56.308378     -2108.7048    
   7630000   838.68805     -2163.7546      55.505377     -2108.2493    
   7640000   883.57153     -2162.2752      58.475819     -2103.7994    
   7650000   829.43272     -2160.6073      54.892848     -2105.7144    
   7660000   856.72489     -2166.6083      56.699076     -2109.9092    
   7670000   783.92702     -2163.5808      51.881226     -2111.6995    
   7680000   782.20675     -2163.5834      51.767377     -2111.816     
   7690000   841.10267     -2164.4194      55.66518      -2108.7542    
   7700000   837.09071     -2165.1095      55.399663     -2109.7099    
   7710000   789.69615     -2160.9889      52.263034     -2108.7259    
   7720000   819.96569     -2163.3848      54.266309     -2109.1185    
   7730000   882.29838     -2164.8008      58.39156      -2106.4092    
   7740000   807.53064     -2160.462       53.443342     -2107.0187    
   7750000   818.44146     -2162.6935      54.165433     -2108.5281    
   7760000   852.65745     -2163.4777      56.429888     -2107.0479    
   7770000   828.36098     -2166.0844      54.821919     -2111.2625    
   7780000   810.56938     -2161.1433      53.64445      -2107.4988    
   7790000   823.8104      -2165.9202      54.520756     -2111.3995    
   7800000   838.67054     -2163.0912      55.504218     -2107.587     
   7810000   813.95138     -2165.5751      53.868274     -2111.7068    
   7820000   865.2586      -2162.8319      57.263847     -2105.5681    
   7830000   844.33833     -2159.9076      55.879319     -2104.0283    
   7840000   855.66577     -2161.2287      56.628983     -2104.5997    
   7850000   868.45344     -2161.5936      57.475286     -2104.1184    
   7860000   843.62367     -2163.4646      55.832022     -2107.6326    
   7870000   852.37887     -2160.7642      56.411451     -2104.3528    
   7880000   854.67884     -2162.7709      56.563666     -2106.2072    
   7890000   864.60646     -2163.1158      57.220688     -2105.8951    
   7900000   879.99989     -2162.9036      58.239443     -2104.6642    
   7910000   846.72247     -2163.4944      56.037104     -2107.4573    
   7920000   814.44708     -2160.8466      53.90108      -2106.9455    
   7930000   836.45774     -2162.6743      55.357772     -2107.3165    
   7940000   831.22135     -2166.945       55.011221     -2111.9338    
   7950000   865.43513     -2160.4725      57.275531     -2103.197     
   7960000   854.62785     -2162.4889      56.560292     -2105.9286    
   7970000   879.10417     -2162.5948      58.180164     -2104.4146    
   7980000   844.92379     -2160.0319      55.918066     -2104.1139    
   7990000   869.74647     -2160.8848      57.56086      -2103.324     
   8000000   886.14129     -2163.9548      58.645889     -2105.309     
   8010000   807.59184     -2162.783       53.447392     -2109.3356    
   8020000   798.03857     -2156.9389      52.815145     -2104.1237    
   8030000   856.2243      -2163.976       56.665947     -2107.3101    
   8040000   864.60487     -2157.5616      57.220583     -2100.341     
   8050000   858.94        -2162.7375      56.845675     -2105.8918    
   8060000   847.3304      -2161.7055      56.077338     -2105.6282    
   8070000   921.41035     -2164.3127      60.980038     -2103.3326    
   8080000   914.5431      -2160.5904      60.525555     -2100.0649    
   8090000   860.40194     -2159.9598      56.942428     -2103.0174    
   8100000   828.87085     -2159.1509      54.855663     -2104.2953    
   8110000   899.39159     -2162.4944      59.52281      -2102.9716    
   8120000   851.94959     -2161.3807      56.383041     -2104.9977    
   8130000   934.56655     -2160.0009      61.850731     -2098.1501    
   8140000   862.61115     -2160.3772      57.088636     -2103.2886    
   8150000   868.73695     -2161.4598      57.494049     -2103.9658    
   8160000   842.59202     -2165.2742      55.763746     -2109.5104    
   8170000   855.42534     -2157.1695      56.61307      -2100.5564    
   8180000   886.20539     -2161.3642      58.650131     -2102.7141    
   8190000   856.95609     -2158.4029      56.714377     -2101.6886    
   8200000   847.04289     -2160.3768      56.05831      -2104.3185    
   8210000   841.27395     -2163.0766      55.676515     -2107.4001    
   8220000   863.70564     -2159.7235      57.161071     -2102.5625    
   8230000   885.17532     -2161.5535      58.58196      -2102.9716    
   8240000   853.06924     -2157.3903      56.457141     -2100.9332    
   8250000   846.2049      -2156.0666      56.002851     -2100.0637    
   8260000   925.29298     -2162.775       61.236995     -2101.538     
   8270000   843.97018     -2161.024       55.854954     -2105.169     
   8280000   884.80883     -2161.2683      58.557705     -2102.7105    
   8290000   911.91388     -2162.2102      60.35155      -2101.8586    
   8300000   872.49973     -2164.4867      57.743074     -2106.7437    
   8310000   882.88237     -2163.4017      58.430209     -2104.9715    
   8320000   917.50302     -2163.1862      60.721445     -2102.4648    
   8330000   856.03473     -2159.303       56.653401     -2102.6496    
   8340000   895.42909     -2160.8569      59.260566     -2101.5963    
   8350000   884.11182     -2160.2333      58.511576     -2101.7218    
   8360000   886.0044      -2159.0951      58.636829     -2100.4583    
   8370000   954.86704     -2161.2518      63.194241     -2098.0576    
   8380000   859.78375     -2159.4936      56.901515     -2102.5921    
   8390000   918.49584     -2162.7099      60.787151     -2101.9227    
   8400000   876.66564     -2158.5247      58.018779     -2100.5059    
   8410000   913.35457     -2161.2715      60.446896     -2100.8246    
   8420000   870.04423     -2162.0965      57.580566     -2104.5159    
   8430000   921.05281     -2161.3764      60.956375     -2100.42      
   8440000   879.4558      -2164.419       58.203435     -2106.2156    
   8450000   859.75386     -2161.5026      56.899537     -2104.6031    
   8460000   849.49704     -2159.8216      56.220729     -2103.6008    
   8470000   872.92791     -2157.6125      57.771412     -2099.8411    
   8480000   914.44267     -2160.0056      60.518908     -2099.4867    
   8490000   841.10799     -2161.934       55.665531     -2106.2685    
   8500000   906.08199     -2157.2909      59.965588     -2097.3253    
   8510000   866.24035     -2157.1247      57.328821     -2099.7959    
   8520000   848.09276     -2156.7985      56.127791     -2100.6707    
   8530000   916.97211     -2160.3228      60.68631      -2099.6365    
   8540000   903.65278     -2163.9732      59.80482      -2104.1684    
   8550000   875.08096     -2158.3122      57.913903     -2100.3983    
   8560000   929.93091     -2158.6625      61.543938     -2097.1186    
   8570000   925.46758     -2161.0222      61.24855      -2099.7737    
   8580000   856.90248     -2158.9909      56.710829     -2102.2801    
   8590000   879.87182     -2159.2339      58.230968     -2101.003     
   8600000   908.3842      -2155.4084      60.117951     -2095.2904    
   8610000   876.89707     -2162.3788      58.034095     -2104.3447    
   8620000   928.21982     -2164.789       61.430696     -2103.3583    
   8630000   923.75054     -2155.3872      61.134914     -2094.2523    
   8640000   903.50745     -2155.9688      59.795202     -2096.1736    
   8650000   940.09648     -2161.6648      62.216708     -2099.4481    
   8660000   888.22433     -2161.7972      58.783747     -2103.0134    
   8670000   882.38038     -2157.6222      58.396987     -2099.2252    
   8680000   905.80283     -2157.213       59.947113     -2097.2659    
   8690000   867.27557     -2156.7167      57.397333     -2099.3194    
   8700000   934.99948     -2161.1196      61.879382     -2099.2402    
   8710000   873.00173     -2154.3496      57.776297     -2096.5733    
   8720000   880.75805     -2158.6489      58.28962      -2100.3593    
   8730000   939.72647     -2158.2482      62.19222      -2096.0559    
   8740000   907.81655     -2154.0485      60.080383     -2093.9681    
   8750000   928.66841     -2157.1547      61.460385     -2095.6944    
   8760000   907.27597     -2154.1856      60.044607     -2094.141     
   8770000   925.9755      -2156.1644      61.282164     -2094.8822    
   8780000   888.4102      -2157.1111      58.796048     -2098.315     
   8790000   889.66728     -2157.5215      58.879243     -2098.6423    
   8800000   900.8641      -2155.0046      59.620262     -2095.3844    
   8810000   847.29164     -2154.4908      56.074772     -2098.416     
   8820000   931.3702      -2158.3717      61.639192     -2096.7325    
   8830000   910.48964     -2158.8645      60.257292     -2098.6072    
   8840000   911.76847     -2158.9548      60.341926     -2098.6129    
   8850000   913.90038     -2161.3591      60.483018     -2100.8761    
   8860000   966.16675     -2154.7877      63.942069     -2090.8456    
   8870000   897.25415     -2156.1558      59.381351     -2096.7745    
   8880000   948.39742     -2156.6972      62.766074     -2093.9311    
   8890000   937.45699     -2158.1979      62.042023     -2096.1559    
   8900000   981.08482     -2155.0751      64.929365     -2090.1457    
   8910000   900.57223     -2160.419       59.600946     -2100.8181    
   8920000   963.91792     -2158.0792      63.793239     -2094.2859    
   8930000   962.66887     -2151.7686      63.710575     -2088.058     
   8940000   908.22238     -2161.767       60.107242     -2101.6598    
   8950000   905.22762     -2156.9893      59.909045     -2097.0803    
   8960000   976.22226     -2158.5715      64.607555     -2093.9639    
   8970000   887.58201     -2157.8615      58.741237     -2099.1203    
   8980000   896.58914     -2158.4808      59.33734      -2099.1435    
   8990000   962.8772      -2158.337       63.724363     -2094.6127    
   9000000   912.56538     -2156.6546      60.394667     -2096.2599    
   9010000   878.01439     -2155.1675      58.108041     -2097.0595    
   9020000   972.24474     -2155.1923      64.344318     -2090.848     
   9030000   899.33385     -2157.7257      59.518988     -2098.2067    
   9040000   940.51964     -2158.4194      62.244713     -2096.1747    
   9050000   971.82294     -2158.3398      64.316403     -2094.0234    
   9060000   928.33038     -2157.3163      61.438013     -2095.8782    
   9070000   897.61724     -2163.8217      59.405381     -2104.4164    
   9080000   916.20848     -2156.7205      60.635771     -2096.0848    
   9090000   919.07927     -2155.1093      60.825764     -2094.2836    
   9100000   894.33706     -2155.5517      59.188295     -2096.3634    
   9110000   918.93865     -2151.1177      60.816457     -2090.3013    
   9120000   970.61785     -2160.3048      64.236648     -2096.0682    
   9130000   922.07935     -2157.7641      61.024313     -2096.7398    
   9140000   947.78456     -2156.878       62.725514     -2094.1525    
   9150000   941.82622     -2152.4735      62.331184     -2090.1423    
   9160000   932.64921     -2151.9919      61.723838     -2090.268     
   9170000   908.53998     -2157.3098      60.128261     -2097.1815    
   9180000   901.16962     -2157.7447      59.640482     -2098.1042    
   9190000   1000.4163     -2156.6529      66.208743     -2090.4442    
   9200000   969.2744      -2151.5938      64.147737     -2087.446     
   9210000   898.39638     -2154.9697      59.456945     -2095.5127    
   9220000   994.68964     -2150.7426      65.829748     -2084.9129    
   9230000   925.61796     -2158.7382      61.258502     -2097.4797    
   9240000   976.26437     -2156.2736      64.610342     -2091.6633    
   9250000   941.2893      -2153.8624      62.29565      -2091.5667    
   9260000   966.71458     -2156.6413      63.978326     -2092.663     
   9270000   962.78202     -2156.6716      63.718064     -2092.9535    
   9280000   949.95951     -2153.6957      62.869455     -2090.8263    
   9290000   966.26962     -2154.7543      63.948878     -2090.8054    
   9300000   950.55272     -2153.875       62.908714     -2090.9663    
   9310000   1020.7045     -2157.7408      67.551442     -2090.1893    
   9320000   954.0825      -2155.8325      63.142319     -2092.6902    
   9330000   970.95703     -2150.6879      64.259096     -2086.4288    
   9340000   936.6882      -2153.9503      61.991144     -2091.9592    
   9350000   912.47743     -2153.4008      60.388846     -2093.0119    
   9360000   1021.2206     -2152.3963      67.585597     -2084.8107    
   9370000   977.86714     -2158.5564      64.716415     -2093.84      
   9380000   906.33428     -2157.0749      59.982285     -2097.0926    
   9390000   923.5371      -2156.8279      61.120788     -2095.7071    
   9400000   962.32493     -2154.3082      63.687813     -2090.6204    
   9410000   907.18195     -2153.0331      60.038385     -2092.9947    
   9420000   909.63551     -2160.3662      60.200764     -2100.1654    
   9430000   874.1164      -2155.7         57.850067     -2097.8499    
   9440000   916.84336     -2152.1151      60.677788     -2091.4373    
   9450000   944.22323     -2155.7952      62.489821     -2093.3054    
   9460000   958.87684     -2156.2512      63.459615     -2092.7916    
   9470000   903.6924      -2153.6316      59.807442     -2093.8242    
   9480000   927.44397     -2153.251       61.37935      -2091.8717    
   9490000   976.25333     -2153.8455      64.609611     -2089.2359    
   9500000   962.64016     -2153.2278      63.708676     -2089.5191    
   9510000   963.83855     -2155.7278      63.787986     -2091.9398    
   9520000   966.14584     -2152.632       63.940685     -2088.6913    
   9530000   987.82711     -2154.9138      65.375578     -2089.5382    
   9540000   959.72527     -2152.0031      63.515764     -2088.4873    
   9550000   946.91215     -2151.9431      62.667777     -2089.2753    
   9560000   978.43578     -2152.4303      64.754048     -2087.6763    
   9570000   969.04414     -2154.7168      64.132499     -2090.5843    
   9580000   970.5357      -2152.455       64.231212     -2088.2238    
   9590000   1008.7894     -2150.1942      66.762886     -2083.4313    
   9600000   932.06074     -2151.0027      61.684893     -2089.3178    
   9610000   993.50109     -2152.8926      65.751089     -2087.1415    
   9620000   911.0831      -2151.8877      60.296568     -2091.5911    
   9630000   962.53826     -2149.2434      63.701932     -2085.5415    
   9640000   944.19949     -2153.48        62.48825      -2090.9917    
   9650000   1004.1157     -2156.5084      66.453574     -2090.0549    
   9660000   970.66022     -2157.8358      64.239453     -2093.5963    
   9670000   939.66358     -2150.8934      62.188058     -2088.7054    
   9680000   1016.5504     -2151.5671      67.276521     -2084.2906    
   9690000   977.4778      -2153.6664      64.690648     -2088.9757    
   9700000   968.21005     -2155.8644      64.077297     -2091.7871    
   9710000   951.21903     -2153.3544      62.952811     -2090.4015    
   9720000   915.39678     -2155.5303      60.582052     -2094.9482    
   9730000   938.15733     -2153.2752      62.088372     -2091.1868    
   9740000   943.82457     -2153.3935      62.463437     -2090.93      
   9750000   1004.56       -2152.0593      66.482977     -2085.5763    
   9760000   964.35411     -2149.2457      63.822107     -2085.4236    
   9770000   943.85133     -2153.1089      62.465208     -2090.6437    
   9780000   983.09253     -2154.4557      65.062237     -2089.3935    
   9790000   983.20796     -2155.4152      65.069877     -2090.3453    
   9800000   993.44952     -2152.1185      65.747676     -2086.3709    
   9810000   1021.1553     -2155.691       67.581275     -2088.1097    
   9820000   979.48895     -2152.9662      64.823749     -2088.1425    
   9830000   1006.0282     -2151.6998      66.580147     -2085.1197    
   9840000   1011.9523     -2156.146       66.972212     -2089.1738    
   9850000   976.4932      -2154.018       64.625486     -2089.3925    
   9860000   989.1581      -2150.6352      65.463665     -2085.1715    
   9870000   892.95021     -2151.1059      59.096511     -2092.0094    
   9880000   968.30741     -2150.4637      64.083741     -2086.38      
   9890000   1026.7863     -2148.1731      67.953946     -2080.2191    
   9900000   1059.9915     -2152.4444      70.151504     -2082.2929    
   9910000   985.67087     -2151.8575      65.232876     -2086.6246    
   9920000   988.23207     -2150.8299      65.402379     -2085.4275    
   9930000   979.47869     -2149.6709      64.823069     -2084.8478    
   9940000   1015.3241     -2152.2409      67.195359     -2085.0456    
   9950000   961.78606     -2153.1347      63.65215      -2089.4826    
   9960000   989.40159     -2153.665       65.479779     -2088.1852    
   9970000   984.14849     -2159.2221      65.132123     -2094.0899    
   9980000   1006.1309     -2146.4923      66.586945     -2079.9053    
   9990000   1064.2364     -2153.3803      70.432436     -2082.9479    
  10000000   989.37756     -2152.9355      65.478188     -2087.4573    
Loop time of 31269.1 on 1 procs for 10000000 steps with 513 atoms

Performance: 27.631 ns/day, 0.869 hours/ns, 319.805 timesteps/s, 164.060 katom-step/s
12.5% CPU use with 1 MPI tasks x 1 OpenMP threads

MPI task timing breakdown:
Section |  min time  |  avg time  |  max time  |%varavg| %total
---------------------------------------------------------------
Pair    | 29068      | 29068      | 29068      |   0.0 | 92.96
Neigh   | 0.21147    | 0.21147    | 0.21147    |   0.0 |  0.00
Comm    | 1089.7     | 1089.7     | 1089.7     |   0.0 |  3.48
Output  | 48.589     | 48.589     | 48.589     |   0.0 |  0.16
Modify  | 1051.6     | 1051.6     | 1051.6     |   0.0 |  3.36
Other   |            | 10.52      |            |       |  0.03

Nlocal:            513 ave         513 max         513 min
Histogram: 1 0 0 0 0 0 0 0 0 0
Nghost:           1440 ave        1440 max        1440 min
Histogram: 1 0 0 0 0 0 0 0 0 0
Neighs:              0 ave           0 max           0 min
Histogram: 1 0 0 0 0 0 0 0 0 0
FullNghs:        18326 ave       18326 max       18326 min
Histogram: 1 0 0 0 0 0 0 0 0 0

Total # of neighbors = 18326
Ave neighs/atom = 35.723197
Neighbor list builds = 333
Dangerous builds = 0

unfix           1
write_data      FINAL_STRUCTURE_1int
System init for write_data ...

Total wall time: 8:41:09
