LAMMPS (29 Aug 2024)
OMP_NUM_THREADS environment is not set. Defaulting to 1 thread. (src/comm.cpp:98)
  using 1 OpenMP thread(s) per MPI task
# LAMMPS input generated from LammpsInputFile with pymatgen v2025.10.7

# STYLES
units metal
atom_style atomic

# SET UP CALCULATION
read_data starting_config.dat
Reading data file ...
  orthogonal box = (0 0 0) to (21.77481 21.77481 21.77481)
  1 by 1 by 1 MPI processor grid
  reading atoms ...
  511 atoms
  read_data CPU = 0.003 seconds
pair_style sw
pair_coeff * * Si.sw Si
Reading sw potential file Si.sw with DATE: 2007-06-11
velocity all create 1000 2201697

# CALCULATION PARAMETERS
fix f1 all nvt temp 1000.0 1000.0 $(100.0*dt)
fix f1 all nvt temp 1000.0 1000.0 0.10000000000000000555
thermo 10000

# RUN CALC AND WRITE OUTPUTS
dump d1 all custom 100 state_dump id type x y z vx vy vz
run 10000000

CITE-CITE-CITE-CITE-CITE-CITE-CITE-CITE-CITE-CITE-CITE-CITE-CITE

Your simulation uses code contributions which should be cited:

- Type Label Framework: https://doi.org/10.1021/acs.jpcb.3c08419

@Article{Gissinger24,
 author = {Jacob R. Gissinger, Ilia Nikiforov, Yaser Afshar, Brendon Waters, Moon-ki Choi, Daniel S. Karls, Alexander Stukowski, Wonpil Im, Hendrik Heinz, Axel Kohlmeyer, and Ellad B. Tadmor},
 title = {Type Label Framework for Bonded Force Fields in LAMMPS},
 journal = {J. Phys. Chem. B},
 year =    2024,
 volume =  128,
 number =  13,
 pages =   {3282–-3297}
}

CITE-CITE-CITE-CITE-CITE-CITE-CITE-CITE-CITE-CITE-CITE-CITE-CITE

Neighbor list info ...
  update: every = 1 steps, delay = 0 steps, check = yes
  max neighbors/atom: 2000, page size: 100000
  master list distance cutoff = 5.77118
  ghost atom cutoff = 5.77118
  binsize = 2.88559, bins = 8 8 8
  1 neighbor lists, perpetual/occasional/extra = 1 0 0
  (1) pair sw, perpetual
      attributes: full, newton on
      pair build: full/bin/atomonly
      stencil: full/bin/3d
      bin: standard
Per MPI rank memory allocation (min/avg/max) = 3.118 | 3.118 | 3.118 Mbytes
   Step          Temp          E_pair         E_mol          TotEng         Press     
         0   1000          -2211.5063      0             -2145.5837     -215.5708     
     10000   971.73502     -2143.0136      0             -2078.9543     -288.99448    
     20000   1028.2855     -2138.329       0             -2070.5417     -513.58883    
     30000   943.68063     -2145.0525      0             -2082.8426     -540.70918    
     40000   975.50265     -2144.9416      0             -2080.6339      512.47376    
     50000   1014.3182     -2138.6072      0             -2071.7406      578.38459    
     60000   984.76092     -2145.314       0             -2080.3959      197.27662    
     70000   972.71651     -2143.6408      0             -2079.5168     -433.39403    
     80000   1038.8801     -2144.5881      0             -2076.1023      685.54446    
     90000   944.06465     -2149.344       0             -2087.1088     -179.89263    
    100000   953.8049      -2142.54        0             -2079.6626      475.01684    
    110000   1031.9891     -2144.1632      0             -2076.1317      661.66316    
    120000   966.89426     -2147.2484      0             -2083.5081      391.74779    
    130000   1034.4498     -2135.452       0             -2067.2583      412.0151     
    140000   1089.9807     -2146.0085      0             -2074.154       516.46151    
    150000   980.02851     -2140.9035      0             -2076.2974      105.2231     
    160000   955.15905     -2147.1609      0             -2084.1942      133.42686    
    170000   1002.1762     -2143.8423      0             -2077.7762      894.27766    
    180000   1041.1479     -2142.6597      0             -2074.0244      1078.976     
    190000   981.09332     -2141.993       0             -2077.3167     -973.48408    
    200000   1012.2651     -2140.1516      0             -2073.4203      326.74026    
    210000   1036.6822     -2145.4143      0             -2077.0735      535.41651    
    220000   966.12688     -2141.8829      0             -2078.1932     -227.15811    
    230000   981.51113     -2142.9151      0             -2078.2113      120.78046    
    240000   1006.8525     -2141.0849      0             -2074.7105      300.81052    
    250000   938.50294     -2145.697       0             -2083.8283     -142.18474    
    260000   967.93714     -2142.1725      0             -2078.3635      62.243384    
    270000   1052.9339     -2140.2638      0             -2070.8515      673.16255    
    280000   993.4463      -2143.394       0             -2077.9034      502.89796    
    290000   1017.1592     -2143.6043      0             -2076.5504      691.10244    
    300000   1008.5557     -2145.269       0             -2078.7823      309.79621    
    310000   1018.3182     -2149.3963      0             -2082.266       253.11717    
    320000   977.30571     -2145.2729      0             -2080.8463     -568.05164    
    330000   1050.3671     -2143.3344      0             -2074.0914      589.44528    
    340000   1039.7023     -2141.4618      0             -2072.9219      9.1232702    
    350000   1052.6652     -2148.2784      0             -2078.8839      1202.1086    
    360000   993.6602      -2143.1196      0             -2077.6149      716.81878    
    370000   964.33692     -2137.8067      0             -2074.235       67.745363    
    380000   956.1006      -2147.2027      0             -2084.174      -197.83498    
    390000   1030.9592     -2141.5475      0             -2073.5839      137.47769    
    400000   993.8551      -2147.6336      0             -2082.116       1145.0996    
    410000   974.38414     -2145.2218      0             -2080.9878     -361.79131    
    420000   955.65254     -2142.2795      0             -2079.2803     -573.73157    
    430000   1097.7541     -2147.327       0             -2074.9601      668.46723    
    440000   1025.5117     -2142.17        0             -2074.5655      609.73202    
    450000   995.72831     -2147.8494      0             -2082.2084      637.79209    
    460000   1007.0291     -2146.0616      0             -2079.6755      306.5232     
    470000   990.42091     -2149.8068      0             -2084.5156     -239.61188    
    480000   994.58695     -2145.3352      0             -2079.7693     -424.67437    
    490000   1024.722      -2145.8789      0             -2078.3265      710.74795    
    500000   915.66536     -2143.0644      0             -2082.7013      512.92102    
    510000   1030.7574     -2143.5175      0             -2075.5672      1143.6278    
    520000   943.28149     -2147.6995      0             -2085.5159     -123.21474    
    530000   1044.2499     -2143.9291      0             -2075.0894      406.40676    
    540000   1013.3268     -2141.4605      0             -2074.6593      203.36771    
    550000   1053.801      -2145.8512      0             -2076.3819      856.95804    
    560000   985.8234      -2143.2058      0             -2078.2177      209.56627    
    570000   1042.2699     -2143.3458      0             -2074.6365      98.925882    
    580000   1035.0295     -2144.1741      0             -2075.9422      350.25813    
    590000   1031.2767     -2146.5004      0             -2078.5159      36.930415    
    600000   1020.8344     -2145.1277      0             -2077.8316      318.61126    
    610000   990.28274     -2144.8574      0             -2079.5753      420.19337    
    620000   1042.8934     -2145.0396      0             -2076.2893      562.23368    
    630000   1015.092      -2145.2178      0             -2078.3002      634.30265    
    640000   965.08011     -2142.7395      0             -2079.1188     -383.19268    
    650000   961.96538     -2145.7742      0             -2082.3589      645.52104    
    660000   964.33265     -2146.6134      0             -2083.042      -530.46033    
    670000   998.18485     -2144.7383      0             -2078.9353     -368.87731    
    680000   1027.0024     -2142.0542      0             -2074.3514     -313.82832    
    690000   1050.1861     -2143.8764      0             -2074.6454     -58.097453    
    700000   1002.8708     -2144.6206      0             -2078.5086      633.54274    
    710000   1006.1743     -2139.9682      0             -2073.6385      288.76572    
    720000   1047.591      -2147.7226      0             -2078.6626      556.26182    
    730000   949.99109     -2146.8488      0             -2084.2229     -363.86549    
    740000   969.67008     -2146.4967      0             -2082.5735      282.00199    
    750000   975.30508     -2142.6754      0             -2078.3807     -86.642646    
    760000   1017.8353     -2145.6695      0             -2078.5711      717.68427    
    770000   1030.3923     -2143.1119      0             -2075.1857      777.62282    
    780000   1053.6067     -2144.6186      0             -2075.162       212.37277    
    790000   995.2008      -2141.0233      0             -2075.417       53.166795    
    800000   1014.8537     -2145.8303      0             -2078.9284      378.18184    
    810000   960.52411     -2144.9588      0             -2081.6385     -276.87583    
    820000   993.97596     -2148.704       0             -2083.1785      314.55143    
    830000   987.36948     -2140.7153      0             -2075.6253      255.49063    
    840000   1009.1206     -2144.4153      0             -2077.8914      109.61549    
    850000   1004.8008     -2139.4386      0             -2073.1995      491.92271    
    860000   955.01327     -2142.8723      0             -2079.9152      238.75536    
    870000   1027.0184     -2142.7533      0             -2075.0495     -364.23683    
    880000   955.46279     -2149.6434      0             -2086.6567      263.47338    
    890000   967.93328     -2149.3256      0             -2085.5168     -733.95872    
    900000   1036.5922     -2143.483       0             -2075.1481      126.91733    
    910000   973.23463     -2145.5448      0             -2081.3866      238.34907    
    920000   1015.3652     -2147.1051      0             -2080.1696      191.55179    
    930000   1023.8788     -2148.4069      0             -2080.91        633.06539    
    940000   1011.5733     -2143.8328      0             -2077.1472     -77.248545    
    950000   1044.2864     -2143.9812      0             -2075.139       1012.5223    
    960000   1035.5399     -2145.1593      0             -2076.8938     -660.97429    
    970000   1072.5088     -2147.0848      0             -2076.3822     -213.71973    
    980000   980.2286      -2145.161       0             -2080.5417      690.40128    
    990000   1077.5374     -2142.9242      0             -2071.8901      712.87114    
   1000000   992.78723     -2148.5405      0             -2083.0933      40.200767    
   1010000   959.8451      -2141.8048      0             -2078.5292     -253.47791    
   1020000   992.23675     -2146.5236      0             -2081.1127      389.77549    
   1030000   987.85684     -2139.6915      0             -2074.5693      461.29151    
   1040000   942.36947     -2148.4481      0             -2086.3245     -443.94868    
   1050000   1054.4239     -2145.8613      0             -2076.3508     -282.41355    
   1060000   1039.6973     -2144.0622      0             -2075.5225      268.27799    
   1070000   1042.5577     -2143.3898      0             -2074.6616     -232.43961    
   1080000   1018.4606     -2146.5794      0             -2079.4397      836.15791    
   1090000   984.95821     -2137.9586      0             -2073.0275      561.59554    
   1100000   962.2634      -2143.4664      0             -2080.0314      239.77052    
   1110000   987.5773      -2142.6749      0             -2077.5712      412.42089    
   1120000   976.29185     -2144.673       0             -2080.3132      353.49697    
   1130000   954.42845     -2145.5006      0             -2082.5822     -155.26661    
   1140000   928.32108     -2148.9209      0             -2087.7235      254.41621    
   1150000   1012.0501     -2147.922       0             -2081.2049     -526.31757    
   1160000   1008.6863     -2146.1765      0             -2079.6812     -722.78602    
   1170000   1001.4679     -2141.6175      0             -2075.5981      487.43228    
   1180000   929.74998     -2142.1836      0             -2080.892       401.28871    
   1190000   984.39911     -2148.9803      0             -2084.0861     -662.77966    
   1200000   971.61175     -2143.4914      0             -2079.4402     -38.422       
   1210000   1061.095      -2142.9358      0             -2072.9856      1150.7149    
   1220000   1022.808      -2145.6037      0             -2078.1775      412.94921    
   1230000   1052.8095     -2144.4562      0             -2075.0522      1078.4102    
   1240000   1015.1496     -2143.5173      0             -2076.596       984.95729    
   1250000   1032.4772     -2148.9638      0             -2080.9002      501.15502    
   1260000   1023.023      -2142.4662      0             -2075.0258      23.959802    
   1270000   927.61752     -2148.0774      0             -2086.9264     -324.55939    
   1280000   987.13863     -2146.5343      0             -2081.4595     -43.454354    
   1290000   945.20068     -2145.5765      0             -2083.2664     -267.14329    
   1300000   997.61688     -2143.1449      0             -2077.3793     -167.13793    
   1310000   974.48758     -2142.8566      0             -2078.6158      682.22065    
   1320000   964.56165     -2144.8157      0             -2081.2292      62.623462    
   1330000   889.90917     -2143.1707      0             -2084.5055      106.07312    
   1340000   961.57583     -2142.7756      0             -2079.3859      414.68605    
   1350000   969.21058     -2146.2053      0             -2082.3124     -844.6379     
   1360000   1023.9595     -2148.0185      0             -2080.5163     -99.941232    
   1370000   1033.9717     -2146.9242      0             -2078.7621      834.60497    
   1380000   988.57961     -2143.5894      0             -2078.4196     -428.90409    
   1390000   955.35772     -2142.7536      0             -2079.7739      202.77906    
   1400000   988.5548      -2141.1616      0             -2075.9935      820.12249    
   1410000   992.26189     -2143.219       0             -2077.8064      764.84306    
   1420000   991.1448      -2146.3167      0             -2080.9778      412.81625    
   1430000   1001.9487     -2147.6335      0             -2081.5824      345.22087    
   1440000   1033.6191     -2142.5367      0             -2074.3978     -888.83079    
   1450000   950.83084     -2145.2225      0             -2082.5412      96.792018    
   1460000   1033.4564     -2145.1033      0             -2076.9751      241.09252    
   1470000   1020.2257     -2147.552       0             -2080.296      -42.548126    
   1480000   989.197       -2147.1435      0             -2081.933       220.222      
   1490000   1030.2517     -2141.5266      0             -2073.6097      1535.5674    
   1500000   978.44492     -2146.1658      0             -2081.6641      868.44863    
   1510000   966.38653     -2142.05        0             -2078.3432     -406.36368    
   1520000   1013.2458     -2144.0656      0             -2077.2698     -59.334477    
   1530000   1021.8541     -2146.6149      0             -2079.2515      216.13212    
   1540000   964.93648     -2144.4991      0             -2080.8879     -215.15327    
   1550000   1063.0482     -2142.0967      0             -2072.0177      141.98258    
   1560000   984.33228     -2143.3938      0             -2078.504       300.63336    
   1570000   1006.2416     -2142.9876      0             -2076.6534     -100.90112    
   1580000   960.97288     -2142.1622      0             -2078.8123     -213.87599    
   1590000   1022.9493     -2141.24        0             -2073.8045      78.178672    
   1600000   1041.0131     -2146.927       0             -2078.3007      1168.4455    
   1610000   998.98101     -2142.8815      0             -2077.026       11.621285    
   1620000   996.22048     -2143.3345      0             -2077.661      -21.773528    
   1630000   1046.0008     -2143.0702      0             -2074.115       1224.9513    
   1640000   958.96093     -2145.1178      0             -2081.9006      667.02465    
   1650000   989.38089     -2141.2875      0             -2076.0649      48.328253    
   1660000   982.95836     -2147.7471      0             -2082.9478     -498.41937    
   1670000   952.22313     -2142.623       0             -2079.8499     -959.38083    
   1680000   975.82848     -2142.0811      0             -2077.7519      236.33736    
   1690000   986.02766     -2148.1642      0             -2083.1626      142.63963    
   1700000   1018.426      -2143.005       0             -2075.8676      198.38683    
   1710000   939.42632     -2147.9386      0             -2086.0091     -842.20244    
   1720000   990.16321     -2143.6339      0             -2078.3597      214.38302    
   1730000   1047.8087     -2143.1191      0             -2074.0447      47.955181    
   1740000   986.68475     -2141.5276      0             -2076.4828      427.43582    
   1750000   1062.401      -2142.7116      0             -2072.6753      1366.9531    
   1760000   1048.1249     -2143.5801      0             -2074.4849      515.13853    
   1770000   1005.7159     -2145.1646      0             -2078.8651     -496.26523    
   1780000   1011.8828     -2148.2813      0             -2081.5753      280.54527    
   1790000   960.54791     -2143.8032      0             -2080.4813     -217.43402    
   1800000   996.84246     -2146.928       0             -2081.2135      56.023026    
   1810000   1025.9547     -2143.1057      0             -2075.472      -57.2708      
   1820000   989.06428     -2146.7225      0             -2081.5207      1039.2694    
   1830000   995.36891     -2147.7424      0             -2082.1251      113.64381    
   1840000   1008.536      -2144.2281      0             -2077.7427      434.17488    
   1850000   1043.5136     -2145.751       0             -2076.9598      935.73653    
   1860000   963.05981     -2142.5489      0             -2079.0614     -104.22522    
   1870000   999.40971     -2142.5687      0             -2076.6849      379.10919    
   1880000   1019.8164     -2147.1678      0             -2079.9388      242.89221    
   1890000   972.76229     -2143.1886      0             -2079.0615     -490.42516    
   1900000   986.33883     -2145.6737      0             -2080.6516      75.846873    
   1910000   1018.2037     -2143.0088      0             -2075.886       432.48283    
   1920000   972.57171     -2143.3444      0             -2079.2299      645.92731    
   1930000   967.15537     -2145.5375      0             -2081.78        4.4568596    
   1940000   1073.5417     -2145.2429      0             -2074.4722      1010.0973    
   1950000   1007.7687     -2147.2233      0             -2080.7885     -171.13578    
   1960000   965.61958     -2143.6996      0             -2080.0433      58.868527    
   1970000   990.493       -2147.5512      0             -2082.2553     -63.159982    
   1980000   1023.5715     -2144.7746      0             -2077.298      -10.709471    
   1990000   1082.9101     -2138.0121      0             -2066.6238      955.0057     
   2000000   954.92678     -2142.638       0             -2079.6866      151.96894    
   2010000   956.44596     -2146.0428      0             -2082.9913      135.07316    
   2020000   961.73062     -2140.6274      0             -2077.2275      359.98029    
   2030000   996.20914     -2149.1746      0             -2083.5018      500.73078    
   2040000   982.1594      -2138.7165      0             -2073.9699      1034.765     
   2050000   1003.0002     -2145.5361      0             -2079.4156      507.89327    
   2060000   976.58442     -2148.3443      0             -2083.9653      221.25779    
   2070000   965.70959     -2145.2428      0             -2081.5807     -775.87538    
   2080000   990.15443     -2139.7037      0             -2074.4301     -1114.7031    
   2090000   988.20162     -2145.6765      0             -2080.5316     -145.50178    
   2100000   966.72726     -2143.7519      0             -2080.0227     -555.82293    
   2110000   983.31934     -2146.0768      0             -2081.2538      84.350929    
   2120000   976.26276     -2145.1038      0             -2080.7459      473.69395    
   2130000   1006.8513     -2147.9125      0             -2081.5382     -174.25309    
   2140000   1021.5732     -2144.5907      0             -2077.2459      1114.7902    
   2150000   998.82636     -2141.6971      0             -2075.8518      885.21717    
   2160000   968.43514     -2143.672       0             -2079.8301      115.99155    
   2170000   992.77674     -2145.5785      0             -2080.132       355.04728    
   2180000   1003.6885     -2143.1106      0             -2076.9448     -35.317842    
   2190000   987.0863      -2145.0338      0             -2079.9624     -223.29652    
   2200000   1032.5161     -2145.6244      0             -2077.5582     -25.889465    
   2210000   968.07855     -2143.2864      0             -2079.468      -489.76329    
   2220000   996.66413     -2147.6008      0             -2081.898       192.88917    
   2230000   1154.372      -2149.0936      0             -2072.9943      1153.5421    
   2240000   1006.3814     -2145.1866      0             -2078.8432      407.99962    
   2250000   997.70065     -2142.723       0             -2076.9519     -963.48565    
   2260000   980.83542     -2146.3862      0             -2081.7269     -41.211802    
   2270000   982.36069     -2145.4955      0             -2080.7356     -517.69401    
   2280000   1042.0487     -2146.5277      0             -2077.8331      842.01234    
   2290000   986.07357     -2137.535       0             -2072.5304     -82.757229    
   2300000   996.78313     -2139.7959      0             -2074.0853     -132.92012    
   2310000   981.0773      -2142.3371      0             -2077.6619     -38.205337    
   2320000   1008.8842     -2141.0243      0             -2074.5159     -589.11327    
   2330000   949.79399     -2148.6722      0             -2086.0593     -351.65733    
   2340000   1001.8264     -2142.9518      0             -2076.9088      31.366328    
   2350000   981.86267     -2142.9098      0             -2078.1828      556.09311    
   2360000   940.92096     -2144.0533      0             -2082.0253     -497.8473     
   2370000   982.75739     -2147.6232      0             -2082.8372      208.31789    
   2380000   990.0017      -2144.1097      0             -2078.8461      434.37398    
   2390000   1013.193      -2145.5645      0             -2078.7721      790.74468    
   2400000   942.2525      -2143.9903      0             -2081.8745     -825.76723    
   2410000   940.94677     -2145.7303      0             -2083.7006     -436.18237    
   2420000   1006.1755     -2146.4771      0             -2080.1473      110.62221    
   2430000   985.41917     -2141.2537      0             -2076.2922     -492.86067    
   2440000   1030.1729     -2142.7764      0             -2074.8647      945.14195    
   2450000   988.02058     -2140.0133      0             -2074.8803      809.72308    
   2460000   1018.0417     -2150.7395      0             -2083.6275      389.57392    
   2470000   958.23871     -2143.5733      0             -2080.4036     -63.442498    
   2480000   976.0238      -2141.5493      0             -2077.2072     -684.36277    
   2490000   1000.844      -2143.068       0             -2077.0897     -72.750241    
   2500000   1036.451      -2142.8395      0             -2074.5139      493.57802    
   2510000   955.05925     -2143.8564      0             -2080.8963      708.87643    
   2520000   1002.7346     -2141.8439      0             -2075.741       668.12318    
   2530000   1077.894      -2141.6242      0             -2070.5666     -170.78045    
   2540000   1026.7307     -2141.2591      0             -2073.5743      564.35457    
   2550000   985.44602     -2144.468       0             -2079.5047     -47.912406    
   2560000   988.4441      -2145.8818      0             -2080.7209      529.407      
   2570000   1011.18       -2147.8296      0             -2081.1699     -590.16786    
   2580000   944.98463     -2144.1632      0             -2081.8673     -911.69625    
   2590000   954.82304     -2145.0299      0             -2082.0854     -96.809853    
   2600000   990.68729     -2146.5905      0             -2081.2817      138.69443    
   2610000   946.32732     -2140.8366      0             -2078.4522      80.77519     
   2620000   979.58154     -2148.2962      0             -2083.7196     -377.2833     
   2630000   1000.7515     -2143.2741      0             -2077.3019      447.24265    
   2640000   1030.1756     -2139.7262      0             -2071.8143      244.06246    
   2650000   1054.6506     -2142.2803      0             -2072.7549      78.39565     
   2660000   964.12875     -2144.0471      0             -2080.4892     -211.25588    
   2670000   1007.3329     -2149.1144      0             -2082.7083      459.63191    
   2680000   987.89926     -2142.78        0             -2077.655       480.00594    
   2690000   993.67783     -2143.3405      0             -2077.8346      246.50486    
   2700000   984.06374     -2146.9683      0             -2082.0961     -238.09408    
   2710000   970.52029     -2142.1399      0             -2078.1606      903.85682    
   2720000   1014.8519     -2140.2542      0             -2073.3525      551.30714    
   2730000   965.85056     -2145.8772      0             -2082.2058      422.62148    
   2740000   1028.7689     -2144.8615      0             -2077.0423      290.7204     
   2750000   946.13502     -2144.2664      0             -2081.8947     -307.50494    
   2760000   983.6975      -2143.7578      0             -2078.9098     -108.53025    
   2770000   972.29023     -2146.0621      0             -2081.9662      132.85034    
   2780000   1037.4401     -2140.2022      0             -2071.8113      631.92052    
   2790000   1012.3589     -2143.1184      0             -2076.381       673.92748    
   2800000   1093.114      -2147.2674      0             -2075.2064      1063.7154    
   2810000   963.63965     -2147.6194      0             -2084.0937     -212.44955    
   2820000   964.6612      -2140.8575      0             -2077.2645      247.61031    
   2830000   1022.6625     -2142.6292      0             -2075.2125      741.10598    
   2840000   1045.6158     -2145.783       0             -2076.8533      726.72953    
   2850000   965.80082     -2141.4915      0             -2077.8234      642.05893    
   2860000   940.24968     -2150.0126      0             -2088.0288     -445.32991    
   2870000   998.96897     -2146.881       0             -2081.0263      270.36647    
   2880000   922.77729     -2145.745       0             -2084.913      -329.14019    
   2890000   1077.1179     -2141.4599      0             -2070.4534      604.45337    
   2900000   1008.4779     -2144.3141      0             -2077.8325      953.84877    
   2910000   981.35877     -2142.4787      0             -2077.7849      538.13248    
   2920000   1034.8168     -2144.4367      0             -2076.2188      862.91667    
   2930000   977.62662     -2147.6186      0             -2083.1709      293.49955    
   2940000   1029.5361     -2142.1302      0             -2074.2604      623.34944    
   2950000   975.88412     -2142.7696      0             -2078.4367     -222.64323    
   2960000   989.76673     -2144.9832      0             -2079.7351      496.04205    
   2970000   1042.9889     -2144.3481      0             -2075.5915      290.27453    
   2980000   982.77729     -2142.9684      0             -2078.1811      68.574482    
   2990000   979.91676     -2146.992       0             -2082.3933      342.28112    
   3000000   1010.8252     -2145.9915      0             -2079.3552      409.40994    
   3010000   997.18634     -2143.3815      0             -2077.6444      249.33639    
   3020000   1051.9707     -2142.792       0             -2073.4432      288.57377    
   3030000   1020.0225     -2145.7216      0             -2078.479       363.771      
   3040000   1027.9161     -2147.6732      0             -2079.9102      448.90338    
   3050000   978.13202     -2144.9223      0             -2080.4413      500.99309    
   3060000   964.14815     -2143.5506      0             -2079.9914      363.78653    
   3070000   959.24115     -2141.2171      0             -2077.9814     -347.47255    
   3080000   995.7886      -2148.3252      0             -2082.6801      206.38295    
   3090000   1004.2717     -2144.1025      0             -2077.8982      224.11402    
   3100000   988.31928     -2147.1544      0             -2082.0018      612.69245    
   3110000   1000.9036     -2144.6625      0             -2078.6803      73.788291    
   3120000   1015.7492     -2144.4587      0             -2077.4978      275.63134    
   3130000   1046.464      -2145.8552      0             -2076.8695      967.47781    
   3140000   956.81774     -2140.5381      0             -2077.4621     -674.92862    
   3150000   1003.1955     -2143.0673      0             -2076.9339      128.60976    
   3160000   931.41455     -2142.7256      0             -2081.3243     -442.32409    
   3170000   1017.3897     -2145.0266      0             -2077.9575      679.34143    
   3180000   1049.2115     -2145.3955      0             -2076.2287      169.00309    
   3190000   986.33021     -2144.9957      0             -2079.9741      260.63149    
   3200000   928.05321     -2144.2316      0             -2083.0518     -482.17496    
   3210000   1012.2629     -2144.1638      0             -2077.4328     -2.5219107    
   3220000   935.2354      -2147.1848      0             -2085.5316     -178.42929    
   3230000   1011.3729     -2145.4617      0             -2078.7892     -8.926418     
   3240000   1002.1018     -2142.878       0             -2076.8168      266.84685    
   3250000   967.31096     -2144.9605      0             -2081.1928      711.10511    
   3260000   933.62651     -2141.5392      0             -2079.992       647.57264    
   3270000   926.7697      -2143.9301      0             -2082.8349      803.50503    
   3280000   1022.8121     -2144.2497      0             -2076.8232      490.08214    
   3290000   954.1406      -2142.8761      0             -2079.9766     -197.35015    
   3300000   964.72773     -2142.898       0             -2079.3005     -440.4855     
   3310000   961.85588     -2145.4059      0             -2081.9978      44.79354     
   3320000   1000.6884     -2140.6538      0             -2074.6857      401.69392    
   3330000   1009.8827     -2146.4764      0             -2079.9023      336.14325    
   3340000   967.05503     -2148.5632      0             -2084.8124     -391.38874    
   3350000   966.49998     -2140.9189      0             -2077.2046     -113.59728    
   3360000   964.705       -2138.8392      0             -2075.2433      831.38946    
   3370000   976.01916     -2145.3164      0             -2080.9746     -130.17563    
   3380000   990.88632     -2145.2679      0             -2079.946      -2.750493     
   3390000   1006.8091     -2146.1033      0             -2079.7318      325.94294    
   3400000   942.779       -2140.7093      0             -2078.5588     -90.066922    
   3410000   1000.183      -2144.845       0             -2078.9102      162.51955    
   3420000   1015.512      -2144.7705      0             -2077.8252     -155.54359    
   3430000   997.42042     -2146.4058      0             -2080.6532     -126.58885    
   3440000   1070.8265     -2146.2109      0             -2075.6192      234.71667    
   3450000   974.4147      -2145.6474      0             -2081.4114     -138.4258     
   3460000   1046.8506     -2143.9348      0             -2074.9236      655.30117    
   3470000   970.68326     -2145.0466      0             -2081.0566      466.42929    
   3480000   956.74385     -2141.1471      0             -2078.076      -527.67254    
   3490000   1010.1751     -2146.5246      0             -2079.9311     -566.22863    
   3500000   1000.2407     -2144.4896      0             -2078.5511     -92.965409    
   3510000   1014.2797     -2139.4383      0             -2072.5742     -506.29161    
   3520000   937.76027     -2144.1496      0             -2082.3299     -650.38887    
   3530000   1011.9284     -2144.9671      0             -2078.258       725.06447    
   3540000   995.18139     -2142.8077      0             -2077.2027      900.64559    
   3550000   1030.4397     -2144.0302      0             -2076.1009     -2.3953313    
   3560000   1010.0212     -2145.5926      0             -2079.0093     -158.83628    
   3570000   958.77571     -2144.1843      0             -2080.9792     -343.20992    
   3580000   1029.2798     -2141.418       0             -2073.5652      862.05944    
   3590000   1029.5263     -2143.6647      0             -2075.7956      1361.8922    
   3600000   990.69563     -2145.0049      0             -2079.6956     -274.54598    
   3610000   979.39098     -2140.6086      0             -2076.0445     -608.11959    
   3620000   1019.9569     -2144.3084      0             -2077.0701      208.30996    
   3630000   980.52179     -2144.0262      0             -2079.3876     -270.39232    
   3640000   1005.8896     -2144.9297      0             -2078.6187      551.88278    
   3650000   973.73364     -2148.7963      0             -2084.6051     -269.68019    
   3660000   972.8049      -2140.9251      0             -2076.7952     -303.38964    
   3670000   1011.9984     -2143.4473      0             -2076.7337      103.98048    
   3680000   1024.9788     -2139.6217      0             -2072.0524      75.274695    
   3690000   1062.8631     -2148.0676      0             -2078.0008      1340.4099    
   3700000   930.79022     -2141.0266      0             -2079.6664     -625.25338    
   3710000   966.55042     -2147.2886      0             -2083.571      -254.69974    
   3720000   1022.7581     -2144.5728      0             -2077.1499     -502.88222    
   3730000   1028.1665     -2140.0343      0             -2072.2548      1289.4533    
   3740000   981.09919     -2146.4668      0             -2081.7901      227.73876    
   3750000   992.87367     -2141.2605      0             -2075.8076      162.82131    
   3760000   1038.6923     -2146.3802      0             -2077.9069      498.02739    
   3770000   1042.9659     -2139.9951      0             -2071.24        150.90214    
   3780000   1030.7363     -2145.5852      0             -2077.6363      362.80854    
   3790000   1027.7256     -2143.331       0             -2075.5806      902.40405    
   3800000   950.73606     -2137.5929      0             -2074.9179      1148.6698    
   3810000   1050.7787     -2146.2086      0             -2076.9384      453.75322    
   3820000   989.00273     -2146.2657      0             -2081.068      -796.8026     
   3830000   1005.7357     -2146.5139      0             -2080.2131      63.87507     
   3840000   924.71462     -2146.7846      0             -2085.825      -538.93109    
   3850000   1017.0128     -2144.7905      0             -2077.7463      454.37408    
   3860000   959.81515     -2144.8061      0             -2081.5325     -395.13433    
   3870000   966.68967     -2141.8184      0             -2078.0916     -177.10176    
   3880000   964.92577     -2145.916       0             -2082.3056      113.14875    
   3890000   1094.8291     -2140.4071      0             -2068.233       973.77677    
   3900000   950.7014      -2147.0371      0             -2084.3643     -44.094346    
   3910000   1105.2643     -2143.9516      0             -2071.0896      512.88937    
   3920000   936.0435      -2141.6347      0             -2079.9282     -97.805466    
   3930000   1097.5999     -2150.0618      0             -2077.7051      874.08937    
   3940000   989.10312     -2144.3952      0             -2079.1909      379.18774    
   3950000   1034.0815     -2141.8942      0             -2073.7247      1616.7981    
   3960000   948.44088     -2142.9422      0             -2080.4184      85.202471    
   3970000   1019.1247     -2144.0216      0             -2076.8382      1038.6372    
   3980000   997.58576     -2146.1798      0             -2080.4163      681.07759    
   3990000   994.69738     -2145.3272      0             -2079.7541     -605.69363    
   4000000   986.88943     -2142.201       0             -2077.1426     -212.38516    
   4010000   1050.7673     -2143.3184      0             -2074.049       767.69309    
   4020000   1068.8773     -2139.9929      0             -2069.5297      431.12063    
   4030000   930.76083     -2143.7795      0             -2082.4212     -282.57672    
   4040000   1043.4103     -2143.2798      0             -2074.4954      189.24628    
   4050000   985.70814     -2142.6259      0             -2077.6453      155.46202    
   4060000   1004.7862     -2138.5138      0             -2072.2756      573.35047    
   4070000   1037.9913     -2144.5694      0             -2076.1423      46.33256     
   4080000   994.52678     -2151.16        0             -2085.5981     -653.59484    
   4090000   980.88428     -2143.9901      0             -2079.3276     -338.32837    
   4100000   1006.996      -2142.5402      0             -2076.1563      384.19265    
   4110000   978.70022     -2146.9756      0             -2082.457      -1277.3374    
   4120000   1010.915      -2144.0721      0             -2077.4299      123.02494    
   4130000   1024.4024     -2142.4209      0             -2074.8895     -355.9175     
   4140000   1003.3082     -2143.6398      0             -2077.499      -460.75705    
   4150000   1007.0088     -2141.9329      0             -2075.5482      671.26805    
   4160000   944.31511     -2141.7208      0             -2079.469       482.76438    
   4170000   971.43151     -2146.1963      0             -2082.1569     -406.89535    
   4180000   999.64672     -2140.1885      0             -2074.2891      591.95227    
   4190000   1064.5825     -2145.5248      0             -2075.3446      213.96319    
   4200000   979.65119     -2142.5822      0             -2078.001       630.87775    
   4210000   962.78766     -2146.5539      0             -2083.0843     -293.01966    
   4220000   969.94079     -2141.3142      0             -2077.3732      1009.3546    
   4230000   983.16147     -2142.1667      0             -2077.354      -169.09391    
   4240000   953.19897     -2142.932       0             -2080.0945     -213.63326    
   4250000   1032.4888     -2145.2525      0             -2077.1881      457.34988    
   4260000   1004.4012     -2149.9882      0             -2083.7754      203.19275    
   4270000   1040.8153     -2145.8606      0             -2077.2473      561.57192    
   4280000   929.15203     -2141.0986      0             -2079.8464     -180.19645    
   4290000   992.01205     -2139.9553      0             -2074.5592      682.56048    
   4300000   970.67828     -2144.3556      0             -2080.3659     -264.67493    
   4310000   1006.3393     -2140.2055      0             -2073.8649      329.7627     
   4320000   928.16297     -2149.5595      0             -2088.3725     -574.8083     
   4330000   975.40879     -2141.5611      0             -2077.2595     -172.26776    
   4340000   1034.1936     -2147.2597      0             -2079.0829      779.87256    
   4350000   1009.4769     -2143.6872      0             -2077.1398      450.35925    
   4360000   957.85743     -2143.9426      0             -2080.7981      25.678768    
   4370000   1015.5786     -2141.7737      0             -2074.824       221.76481    
   4380000   1042.3578     -2145.6603      0             -2076.9453      453.60856    
   4390000   1056.8357     -2145.1484      0             -2075.479       572.56678    
   4400000   1032.1833     -2145.7506      0             -2077.7063     -76.22268     
   4410000   976.72682     -2141.7941      0             -2077.4057      319.29462    
   4420000   992.48822     -2142.2269      0             -2076.7995      362.1061     
   4430000   1001.7863     -2148.084       0             -2082.0436     -256.22527    
   4440000   1006.1089     -2139.6465      0             -2073.3212      47.12179     
   4450000   1017.4143     -2147.4581      0             -2080.3874      826.57112    
   4460000   967.21956     -2146.8784      0             -2083.1167     -374.24701    
   4470000   1036.7985     -2145.2774      0             -2076.9288      147.29348    
   4480000   995.95417     -2145.1381      0             -2079.4822      376.16176    
   4490000   1011.4839     -2142.632       0             -2075.9523      445.06816    
   4500000   998.28432     -2143.7795      0             -2077.9699     -16.889275    
   4510000   1031.7822     -2143.5827      0             -2075.5648      489.39857    
   4520000   981.68457     -2147.8695      0             -2083.1543      52.426839    
   4530000   972.48073     -2148.8929      0             -2084.7843     -501.54698    
   4540000   1002.3796     -2143.9157      0             -2077.8362      300.55839    
   4550000   950.8449      -2146.0443      0             -2083.362      -327.27684    
   4560000   986.74035     -2146.4104      0             -2081.3618      433.03474    
   4570000   990.60917     -2150.4222      0             -2085.1186     -610.54452    
   4580000   1006.5433     -2139.7111      0             -2073.3571      813.13063    
   4590000   978.80885     -2141.8989      0             -2077.3732     -54.254499    
   4600000   994.62574     -2147.0689      0             -2081.5005      720.91684    
   4610000   995.28018     -2145.992       0             -2080.3805     -132.77665    
   4620000   967.25518     -2146.5223      0             -2082.7583     -44.6531      
   4630000   1011.3841     -2141.5036      0             -2074.8305     -141.13343    
   4640000   1021.8624     -2142.2381      0             -2074.8742      124.10067    
   4650000   1044.6127     -2148.6344      0             -2079.7708      615.8477     
   4660000   1033.0072     -2141.1938      0             -2073.0952      649.04829    
   4670000   986.04941     -2144.877       0             -2079.8739     -255.37939    
   4680000   1049.7417     -2143.1123      0             -2073.9106      1522.7353    
   4690000   956.84898     -2142.9381      0             -2079.86       -30.72436     
   4700000   978.73038     -2146.2009      0             -2081.6804      162.31376    
   4710000   969.60657     -2150.523       0             -2086.604      -554.78062    
   4720000   986.95391     -2145.1524      0             -2080.0898      371.30957    
   4730000   1004.2433     -2146.6683      0             -2080.4659     -175.87925    
   4740000   1045.1805     -2145.0519      0             -2076.1508      930.67284    
   4750000   1032.3593     -2142.1325      0             -2074.0766      451.58228    
   4760000   1080.9358     -2143.9127      0             -2072.6545      844.46272    
   4770000   988.65738     -2139.9267      0             -2074.7517      802.00285    
   4780000   951.74797     -2147.6827      0             -2084.9409     -27.617843    
   4790000   1008.9047     -2146.7114      0             -2080.2017      581.25449    
   4800000   986.82423     -2141.2099      0             -2076.1558     -128.36078    
   4810000   1019.826      -2141.6354      0             -2074.4057      1283.1268    
   4820000   974.07927     -2145.4587      0             -2081.2448      172.37754    
   4830000   954.35353     -2146.6981      0             -2083.7845     -161.98995    
   4840000   1058.2257     -2139.3763      0             -2069.6152      1027.3112    
   4850000   1005.9023     -2145.7852      0             -2079.4734      768.60057    
   4860000   1026.3865     -2141.515       0             -2073.8528      76.963581    
   4870000   970.78683     -2142.5376      0             -2078.5408      181.97175    
   4880000   928.66194     -2141.5879      0             -2080.368      -537.28115    
   4890000   1002.8902     -2143.928       0             -2077.8148      12.204395    
   4900000   935.42415     -2144.9094      0             -2083.2437     -251.58576    
   4910000   1036.8617     -2146.487       0             -2078.1343      573.83981    
   4920000   1025.9528     -2143.987       0             -2076.3535      597.1456     
   4930000   1035.1644     -2143.0609      0             -2074.8201     -109.54704    
   4940000   1060.9949     -2145.3315      0             -2075.3879     -23.864537    
   4950000   1009.7383     -2148.793       0             -2082.2284      72.636162    
   4960000   994.52947     -2141.2237      0             -2075.6617      348.93864    
   4970000   1000.1004     -2140.7503      0             -2074.821      -241.80065    
   4980000   1010.5941     -2140.6765      0             -2074.0554      794.96492    
   4990000   1044.5731     -2139.6029      0             -2070.7418      720.90188    
   5000000   960.01753     -2147.4414      0             -2084.1544     -920.53562    
   5010000   1006.4567     -2143.7681      0             -2077.4198      110.05374    
   5020000   1025.4445     -2142.9296      0             -2075.3295     -257.05783    
   5030000   1024.9296     -2138.4164      0             -2070.8503      720.30609    
   5040000   1046.6072     -2138.0286      0             -2069.0335      1080.4562    
   5050000   1027.419      -2138.2874      0             -2070.5572      331.9021     
   5060000   989.43003     -2141.7325      0             -2076.5066      744.27543    
   5070000   994.45844     -2146.8511      0             -2081.2937     -36.42735     
   5080000   1006.1516     -2149.9778      0             -2083.6496     -136.97485    
   5090000   1006.0351     -2140.6583      0             -2074.3378      29.382455    
   5100000   1030.8453     -2146.5237      0             -2078.5676      317.65163    
   5110000   999.91914     -2142.4718      0             -2076.5545     -452.11546    
   5120000   968.338       -2140.5214      0             -2076.6859      255.9893     
   5130000   989.99676     -2144.5214      0             -2079.2581     -145.27208    
   5140000   1053.6489     -2144.6608      0             -2075.2014     -48.502565    
   5150000   1019.0062     -2144.6259      0             -2077.4503     -204.20588    
   5160000   1036.6933     -2147.3595      0             -2079.0179      410.36803    
   5170000   1020.9633     -2145.8548      0             -2078.5501      98.979183    
   5180000   998.73947     -2141.6454      0             -2075.8058      99.804831    
   5190000   1025.3221     -2140.936       0             -2073.344       607.01554    
   5200000   1016.4529     -2145.4165      0             -2078.4092     -46.559734    
   5210000   1007.3995     -2145.6139      0             -2079.2034      400.96411    
   5220000   993.87072     -2145.795       0             -2080.2763      106.29996    
   5230000   997.0566      -2145.855       0             -2080.1264      196.84242    
   5240000   979.20978     -2145.2058      0             -2080.6537      136.17259    
   5250000   998.67561     -2145.3994      0             -2079.564      -469.30289    
   5260000   1030.7353     -2141.7585      0             -2073.8097     -55.745255    
   5270000   974.63642     -2140.2885      0             -2076.0379     -651.74686    
   5280000   952.89524     -2142.6008      0             -2079.7834     -183.94293    
   5290000   971.1114      -2147.9863      0             -2083.968      -106.34336    
   5300000   1019.7386     -2150.6745      0             -2083.4506     -268.17701    
   5310000   986.11949     -2146.6304      0             -2081.6228     -511.70234    
   5320000   1037.2163     -2144.751       0             -2076.3749      943.30923    
   5330000   983.63275     -2147.7445      0             -2082.9008      156.75504    
   5340000   1060.0006     -2142.5133      0             -2072.6352     -511.61579    
   5350000   912.86063     -2145.1006      0             -2084.9224     -405.73623    
   5360000   952.54594     -2145.6875      0             -2082.8931     -985.52981    
   5370000   1003.4039     -2147.2719      0             -2081.1249     -165.82744    
   5380000   980.5228      -2145.3025      0             -2080.6638     -326.74241    
   5390000   1035.4251     -2142.381       0             -2074.123       1138.6663    
   5400000   935.81234     -2148.2175      0             -2086.5263      62.284772    
   5410000   963.00237     -2143.6214      0             -2080.1377      492.99877    
   5420000   970.91031     -2147.1734      0             -2083.1684      297.16716    
   5430000   972.55231     -2142.8761      0             -2078.7629     -103.54649    
   5440000   1044.1768     -2141.5236      0             -2072.6887     -310.78833    
   5450000   1005.5727     -2144.0271      0             -2077.7371     -322.84566    
   5460000   1043.883      -2143.6824      0             -2074.8669      424.54518    
   5470000   943.10618     -2141.1074      0             -2078.9353      247.35713    
   5480000   995.61053     -2141.4188      0             -2075.7855     -318.92022    
   5490000   950.08713     -2147.1267      0             -2084.4944      11.475784    
   5500000   972.11819     -2142.6144      0             -2078.5298     -341.64644    
   5510000   967.00086     -2142.4819      0             -2078.7346     -793.89888    
   5520000   966.1677      -2144.7215      0             -2081.0291      462.69223    
   5530000   965.35417     -2141.3102      0             -2077.6715      151.98835    
   5540000   972.0423      -2144.6108      0             -2080.5311     -117.93914    
   5550000   990.133       -2142.6221      0             -2077.3499     -332.63839    
   5560000   975.63208     -2140.9317      0             -2076.6154      12.565804    
   5570000   1020.3339     -2145.8194      0             -2078.5563      556.47951    
   5580000   985.48076     -2145.5051      0             -2080.5396     -182.39592    
   5590000   1037.801      -2142.0147      0             -2073.6         528.63387    
   5600000   1022.0843     -2144.2509      0             -2076.8724      555.82218    
   5610000   972.87023     -2145.8621      0             -2081.7279     -91.6751      
   5620000   1028.2432     -2147.2608      0             -2079.4763     -166.45883    
   5630000   959.12552     -2145.3419      0             -2082.1138      244.05898    
   5640000   967.05119     -2144.8621      0             -2081.1115     -112.16479    
   5650000   977.17496     -2146.8444      0             -2082.4264      403.39531    
   5660000   1060.4477     -2140.3138      0             -2070.4062      953.60203    
   5670000   1043.3381     -2147.0896      0             -2078.3099      534.52574    
   5680000   1024.4418     -2146.6322      0             -2079.0982      515.13056    
   5690000   983.04672     -2143.5823      0             -2078.7773     -335.21439    
   5700000   955.91421     -2143.9018      0             -2080.8854     -254.79587    
   5710000   1041.2767     -2147.8715      0             -2079.2277     -28.564548    
   5720000   1004.39       -2146.5327      0             -2080.3206     -546.51089    
   5730000   1011.8991     -2142.4282      0             -2075.7211      414.58312    
   5740000   997.42173     -2144.3638      0             -2078.6111     -307.82044    
   5750000   972.16978     -2144.0771      0             -2079.9891     -169.01813    
   5760000   977.68443     -2142.652       0             -2078.2004      441.60134    
   5770000   992.31314     -2146.7169      0             -2081.3009     -293.15208    
   5780000   948.21251     -2146.6109      0             -2084.1022     -75.624393    
   5790000   984.61142     -2143.717       0             -2078.8088      715.91152    
   5800000   1019.8973     -2144.7282      0             -2077.4938      701.33783    
   5810000   1033.2733     -2144.2174      0             -2076.1013      507.2809     
   5820000   974.74278     -2143.5452      0             -2079.2876     -184.09901    
   5830000   1032.0399     -2144.6294      0             -2076.5946      199.95535    
   5840000   1003.0797     -2145.306       0             -2079.1803      591.61003    
   5850000   1028.7602     -2142.0903      0             -2074.2716     -38.154324    
   5860000   1011.3882     -2136.909       0             -2070.2355      374.48138    
   5870000   1061.6367     -2143.6366      0             -2073.6506      631.92063    
   5880000   1034.8536     -2144.2461      0             -2076.0257      345.9574     
   5890000   985.68745     -2148.0149      0             -2083.0358     -422.74429    
   5900000   947.04423     -2141.0993      0             -2078.6676      2.3598905    
   5910000   992.23865     -2145.5676      0             -2080.1566      217.95276    
   5920000   1001.4238     -2146.5961      0             -2080.5796      288.72166    
   5930000   995.93738     -2141.7892      0             -2076.1344      444.61444    
   5940000   950.77305     -2136.6679      0             -2073.9904      166.18178    
   5950000   941.78884     -2141.2324      0             -2079.1472     -605.94831    
   5960000   1026.2071     -2141.993       0             -2074.3427      723.58725    
   5970000   1049.2885     -2145.6783      0             -2076.5064      135.51525    
   5980000   1008.2736     -2137.1631      0             -2070.6951      1021.393     
   5990000   1062.1591     -2138.091       0             -2068.0706      612.70731    
   6000000   1033.0707     -2143.8693      0             -2075.7665     -397.78004    
   6010000   992.34421     -2148.3919      0             -2082.9739     -524.08913    
   6020000   1087.0518     -2144.0416      0             -2072.3802      822.03367    
   6030000   961.06051     -2143.6535      0             -2080.2978     -544.38344    
   6040000   1040.2399     -2144.7787      0             -2076.2033      622.64817    
   6050000   1026.9085     -2136.003       0             -2068.3064      584.92383    
   6060000   942.74866     -2143.1401      0             -2080.9916     -382.2126     
   6070000   1025.1572     -2147.2989      0             -2079.7178      25.009438    
   6080000   1014.2672     -2148.3999      0             -2081.5366      74.921012    
   6090000   983.99927     -2143.9413      0             -2079.0735     -162.42813    
   6100000   985.07984     -2146.8137      0             -2081.8746      276.06685    
   6110000   989.68047     -2144.6975      0             -2079.4551      817.66354    
   6120000   1048.2478     -2147.1554      0             -2078.0522     -137.4926     
   6130000   913.05435     -2143.4446      0             -2083.2536      129.49872    
   6140000   1015.0946     -2147.7523      0             -2080.8345      346.49071    
   6150000   1032.3268     -2141.9823      0             -2073.9286      700.79538    
   6160000   1051.6581     -2143.0758      0             -2073.7477      473.25543    
   6170000   1058.8809     -2146.3448      0             -2076.5405      320.37239    
   6180000   1034.5165     -2143.5163      0             -2075.3182     -47.236145    
   6190000   974.89209     -2145.0368      0             -2080.7693     -171.86091    
   6200000   1025.5668     -2145.9712      0             -2078.3631     -56.220756    
   6210000   1051.577      -2144.0085      0             -2074.6857      231.70415    
   6220000   945.277       -2144.6647      0             -2082.3495     -705.47821    
   6230000   1002.6053     -2141.9688      0             -2075.8744      82.458472    
   6240000   931.32602     -2141.7268      0             -2080.3313     -13.98217     
   6250000   1023.91       -2142.6789      0             -2075.18        454.93772    
   6260000   1023.7326     -2145.6533      0             -2078.1661      318.06098    
   6270000   989.65004     -2147.7331      0             -2082.4927      468.11822    
   6280000   980.75867     -2143.1424      0             -2078.4882      330.97836    
   6290000   950.52037     -2146.4499      0             -2083.789      -685.75504    
   6300000   990.29437     -2141.2639      0             -2075.9811      366.77133    
   6310000   1039.0297     -2139.382       0             -2070.8864      328.72069    
   6320000   982.59543     -2141.7005      0             -2076.9251      94.711244    
   6330000   993.49029     -2144.6368      0             -2079.1433      314.01661    
   6340000   1032.4049     -2143.248       0             -2075.1891     -11.919398    
   6350000   994.11462     -2144.7459      0             -2079.2112     -597.9067     
   6360000   1030.7971     -2144.2805      0             -2076.3276      208.96909    
   6370000   1004.7215     -2141.0863      0             -2074.8524      29.170471    
   6380000   1030.2536     -2144.8385      0             -2076.9215      167.12013    
   6390000   991.97147     -2144.3868      0             -2078.9934      228.81264    
   6400000   1007.7064     -2144.643       0             -2078.2123      235.82606    
   6410000   973.18828     -2145.8865      0             -2081.7313      380.88789    
   6420000   1068.2744     -2148.2725      0             -2077.849       894.15357    
   6430000   935.50539     -2146.3236      0             -2084.6526     -356.39681    
   6440000   1018.2967     -2140.2152      0             -2073.0864      199.97363    
   6450000   1028.9545     -2140.6955      0             -2072.8641     -58.542304    
   6460000   953.14309     -2145.7252      0             -2082.8915      73.107362    
   6470000   1019.9629     -2139.7427      0             -2072.504       34.118846    
   6480000   965.5925      -2137.9647      0             -2074.3102      142.87489    
   6490000   989.29928     -2146.6335      0             -2081.4163     -64.278039    
   6500000   997.20361     -2144.638       0             -2078.8997      353.56339    
   6510000   917.17151     -2145.4774      0             -2085.015      -138.63519    
   6520000   961.32001     -2148.6294      0             -2085.2566     -367.68558    
   6530000   958.76632     -2144.7952      0             -2081.5907      489.69515    
   6540000   988.52963     -2144.4288      0             -2079.2623     -74.80536     
   6550000   983.44512     -2143.7827      0             -2078.9514     -55.280145    
   6560000   1011.6024     -2140.9528      0             -2074.2652     -349.5506     
   6570000   1053.2695     -2142.6699      0             -2073.2356      697.36351    
   6580000   1038.236      -2145.2387      0             -2076.7954      659.61078    
   6590000   996.72405     -2146.4527      0             -2080.746      -974.42078    
   6600000   1058.1881     -2144.6134      0             -2074.8548      1230.984     
   6610000   1060.5704     -2148.158       0             -2078.2423      799.10408    
   6620000   1030.7009     -2137.5561      0             -2069.6095      492.29727    
   6630000   1030.7481     -2150.0299      0             -2082.0802     -285.48145    
   6640000   986.67858     -2139.6991      0             -2074.6546     -78.955689    
   6650000   1018.5808     -2146.8627      0             -2079.7152     -637.05204    
   6660000   946.09938     -2142.2735      0             -2079.9041     -281.23657    
   6670000   990.70743     -2139.3673      0             -2074.0572      535.19867    
   6680000   1008.101      -2142.5928      0             -2076.1361     -716.89505    
   6690000   947.93737     -2144.0081      0             -2081.5176      16.467021    
   6700000   978.64095     -2142.7734      0             -2078.2587      699.89889    
   6710000   959.52375     -2144.5006      0             -2081.2463      316.11882    
   6720000   1022.8951     -2143.2261      0             -2075.7941     -438.07679    
   6730000   1035.3952     -2141.8188      0             -2073.5628      184.45611    
   6740000   1016.2436     -2148.0237      0             -2081.0302      64.783114    
   6750000   958.97713     -2142.3029      0             -2079.0846     -218.53308    
   6760000   1003.898      -2146.4059      0             -2080.2262     -679.8306     
   6770000   998.58681     -2143.865       0             -2078.0355      148.9526     
   6780000   966.47305     -2146.5548      0             -2082.8423      14.141757    
   6790000   1009.176      -2144.897       0             -2078.3694     -273.34107    
   6800000   1012.3252     -2145.4405      0             -2078.7053      233.8555     
   6810000   976.72817     -2140.8066      0             -2076.4181     -145.67766    
   6820000   954.94163     -2145.9441      0             -2082.9918     -964.5796     
   6830000   1003.769      -2144.1638      0             -2077.9926      387.56236    
   6840000   983.37152     -2143.6493      0             -2078.8228      16.023357    
   6850000   1031.7816     -2145.3289      0             -2077.311       313.66625    
   6860000   977.52679     -2146.9483      0             -2082.5071      116.47619    
   6870000   939.67446     -2143.7297      0             -2081.7839     -96.742213    
   6880000   994.22201     -2150.6616      0             -2085.1198     -14.571649    
   6890000   989.45318     -2142.1814      0             -2076.954      -1032.8069    
   6900000   1010.1138     -2143.2211      0             -2076.6317      1627.6968    
   6910000   970.5783      -2149.3523      0             -2085.3692     -330.25557    
   6920000   1044.4376     -2143.4213      0             -2074.5691      157.12684    
   6930000   1056.6143     -2140.4509      0             -2070.7961      330.70441    
   6940000   986.81129     -2144.6518      0             -2079.5985      411.06819    
   6950000   964.00761     -2146.1293      0             -2082.5793      458.7136     
   6960000   1009.1708     -2143.0904      0             -2076.5632      543.65036    
   6970000   1038.3372     -2141.1342      0             -2072.6842      34.171667    
   6980000   1028.4602     -2141.1961      0             -2073.3973     -320.21145    
   6990000   987.53665     -2144.5843      0             -2079.4832      404.68908    
   7000000   980.72282     -2148.6951      0             -2084.0433     -333.45281    
   7010000   984.67837     -2142.0282      0             -2077.1156      412.9264     
   7020000   947.741       -2142.541       0             -2080.0634     -251.09215    
   7030000   965.26741     -2146.6183      0             -2082.9852     -633.37608    
   7040000   955.66889     -2145.3959      0             -2082.3956     -487.5712     
   7050000   1024.9083     -2145.1758      0             -2077.6111     -170.27357    
   7060000   1002.0549     -2146.2187      0             -2080.1606      695.87246    
   7070000   1047.0702     -2144.6152      0             -2075.5895      1578.6701    
   7080000   1043.612      -2144.5817      0             -2075.784       394.67283    
   7090000   983.5434      -2142.2995      0             -2077.4616      736.16625    
   7100000   978.2404      -2144.6094      0             -2080.1212     -152.12075    
   7110000   961.07389     -2144.8959      0             -2081.5393     -144.61186    
   7120000   1020.8571     -2144.0169      0             -2076.7193     -344.9353     
   7130000   956.92305     -2143.8663      0             -2080.7834      133.86783    
   7140000   1062.286      -2144.7764      0             -2074.7477      932.99198    
   7150000   939.33477     -2143.1369      0             -2081.2134      259.15823    
   7160000   1004.4899     -2141.7359      0             -2075.5172      698.51864    
   7170000   947.22451     -2143.7013      0             -2081.2578     -525.57478    
   7180000   960.3991      -2141.8437      0             -2078.5316     -458.84504    
   7190000   1028.6952     -2145.8134      0             -2077.999       637.43662    
   7200000   998.96227     -2141.3866      0             -2075.5323     -71.40939     
   7210000   994.20802     -2145.7469      0             -2080.2061     -257.50946    
   7220000   971.17959     -2145.5927      0             -2081.57       -412.10981    
   7230000   1030.9616     -2140.976       0             -2073.0123     -406.08397    
   7240000   954.59428     -2145.7214      0             -2082.7919     -967.65206    
   7250000   1013.7977     -2144.905       0             -2078.0727      477.28457    
   7260000   986.06911     -2143.814       0             -2078.8097      362.77599    
   7270000   995.79256     -2144.4038      0             -2078.7585      507.67534    
   7280000   1017.0504     -2144.7972      0             -2077.7505     -73.233911    
   7290000   979.07125     -2147.4599      0             -2082.9169      266.41527    
   7300000   1041.8557     -2148.5077      0             -2079.8257      88.769463    
   7310000   973.78159     -2143.7235      0             -2079.5292      725.11133    
   7320000   1027.9096     -2146.7886      0             -2079.0261      1494.499     
   7330000   1018.3521     -2145.7205      0             -2078.588       385.7132     
   7340000   979.4502      -2145.8976      0             -2081.3296     -426.43166    
   7350000   1058.333      -2146.7466      0             -2076.9785      521.56557    
   7360000   954.30424     -2150.0487      0             -2087.1384     -481.38593    
   7370000   1021.8746     -2143.1066      0             -2075.7418      597.37884    
   7380000   993.60486     -2141.5814      0             -2076.0803     -705.647      
   7390000   956.968       -2147.232       0             -2084.1461      263.92088    
   7400000   982.04254     -2145.7268      0             -2080.9879      124.23587    
   7410000   990.14551     -2141.8641      0             -2076.5911      341.06663    
   7420000   987.84241     -2143.888       0             -2078.7668      54.513591    
   7430000   914.7333      -2143.5821      0             -2083.2805     -962.84954    
   7440000   1010.2583     -2146.6532      0             -2080.0543      218.0655     
   7450000   971.61504     -2141.6277      0             -2077.5762      341.52909    
   7460000   969.59643     -2144.7656      0             -2080.8472      12.133487    
   7470000   1017.752      -2142.7713      0             -2075.6783      278.52988    
   7480000   1040.1357     -2140.8568      0             -2072.2882      655.76972    
   7490000   974.22712     -2141.7625      0             -2077.5388      947.41912    
   7500000   952.32745     -2147.508       0             -2084.728      -168.50067    
   7510000   965.72581     -2145.8163      0             -2082.1531     -36.229507    
   7520000   996.8431      -2148.4055      0             -2082.6909      168.39589    
   7530000   1038.835      -2145.1468      0             -2076.664       682.19088    
   7540000   956.99751     -2140.9299      0             -2077.8421     -26.989951    
   7550000   992.31136     -2148.9583      0             -2083.5425     -144.84853    
   7560000   1083.9231     -2146.3669      0             -2074.9118      185.35259    
   7570000   1011.5977     -2148.0376      0             -2081.3504      345.16686    
   7580000   995.89055     -2142.6494      0             -2076.9976     -720.05186    
   7590000   964.98659     -2137.21        0             -2073.5955     -659.50698    
   7600000   1025.6594     -2144.8628      0             -2077.2485      173.94644    
   7610000   1051.3082     -2140.813       0             -2071.508       679.25009    
   7620000   990.78984     -2144.5188      0             -2079.2033      640.55402    
   7630000   1021.37       -2140.8488      0             -2073.5174      442.02928    
   7640000   1087.7244     -2144.4058      0             -2072.7001      1280.8203    
   7650000   1021.8505     -2148.0145      0             -2080.6513     -774.45962    
   7660000   1122.503      -2139.5294      0             -2065.531       1244.222     
   7670000   972.97397     -2150.0675      0             -2085.9264     -655.64659    
   7680000   1038.9453     -2144.1813      0             -2075.6913      334.86511    
   7690000   987.95982     -2145.1345      0             -2080.0055      192.28569    
   7700000   1058.1374     -2140.1392      0             -2070.384       1109.6258    
   7710000   944.65604     -2147.0554      0             -2084.7811     -62.057345    
   7720000   964.0395      -2145.5644      0             -2082.0123     -302.26912    
   7730000   986.56087     -2143.1788      0             -2078.1421      1248.9606    
   7740000   962.79837     -2143.1241      0             -2079.6539     -76.316147    
   7750000   999.22219     -2142.1371      0             -2076.2657     -369.38787    
   7760000   1000.2653     -2143.893       0             -2077.9529     -911.9347     
   7770000   1003.9889     -2146.1572      0             -2079.9716     -684.90894    
   7780000   937.77098     -2145.5181      0             -2083.6977      109.87962    
   7790000   952.34775     -2139.7613      0             -2076.98        691.67828    
   7800000   915.56719     -2141.5891      0             -2081.2325     -362.67977    
   7810000   963.89427     -2145.272       0             -2081.7295      216.65718    
   7820000   989.65731     -2144.1215      0             -2078.8807     -303.10374    
   7830000   1007.0798     -2145.0412      0             -2078.6518      106.8831     
   7840000   951.89732     -2141.6674      0             -2078.9158      519.72142    
   7850000   968.89372     -2143.999       0             -2080.127      -85.963932    
   7860000   1012.6659     -2144.1216      0             -2077.3639      380.89463    
   7870000   1020.504      -2145.1389      0             -2077.8646     -9.5552006    
   7880000   997.47524     -2142.7504      0             -2076.9942      933.59894    
   7890000   1004.5885     -2145.1808      0             -2078.9557      9.6841026    
   7900000   1029.2715     -2147.5347      0             -2079.6824      45.218562    
   7910000   1025.6496     -2141.5104      0             -2073.8969      253.45372    
   7920000   1023.6167     -2140.7335      0             -2073.2539      447.76945    
   7930000   997.81449     -2141.0148      0             -2075.2362      367.53355    
   7940000   1054.865      -2144.6301      0             -2075.0906      293.88501    
   7950000   988.6862      -2143.7033      0             -2078.5264     -301.5048     
   7960000   998.46784     -2138.677       0             -2072.8553      442.20208    
   7970000   955.54494     -2148.3902      0             -2085.3981      404.0871     
   7980000   979.50679     -2142.1571      0             -2077.5854     -616.36898    
   7990000   952.91091     -2144.3127      0             -2081.4942     -603.62363    
   8000000   955.17983     -2142.2786      0             -2079.3106      378.61924    
   8010000   981.59601     -2143.4627      0             -2078.7533     -229.35589    
   8020000   1009.1486     -2147.377       0             -2080.8513     -409.6818     
   8030000   939.35534     -2143.0685      0             -2081.1436     -539.52849    
   8040000   981.37661     -2139.5567      0             -2074.8618      174.88648    
   8050000   1031.0049     -2142.1924      0             -2074.2258      899.56057    
   8060000   1022.8049     -2145.6383      0             -2078.2123      773.26658    
   8070000   982.67383     -2144.158       0             -2079.3775      1470.0807    
   8080000   1021.166      -2145.4521      0             -2078.1341      66.753833    
   8090000   991.62034     -2144.8585      0             -2079.4882      341.74855    
   8100000   997.1225      -2142.855       0             -2077.122      -155.91367    
   8110000   985.38919     -2147.1278      0             -2082.1683     -349.38914    
   8120000   994.53092     -2137.4113      0             -2071.8491      74.475913    
   8130000   1019.8325     -2139.8416      0             -2072.6115      588.32854    
   8140000   1034.8056     -2144.1434      0             -2075.9263      293.6989     
   8150000   972.88001     -2143.0647      0             -2078.9298      530.71044    
   8160000   913.28777     -2146.6062      0             -2086.3998     -259.0016     
   8170000   1030.8995     -2148.4731      0             -2080.5134      394.21297    
   8180000   1037.8098     -2147.4229      0             -2079.0077      803.17468    
   8190000   967.35618     -2147.9557      0             -2084.185      -42.425756    
   8200000   1037.0417     -2139.8046      0             -2071.44       -150.11992    
   8210000   1016.052      -2147.7959      0             -2080.8151      230.70574    
   8220000   931.07488     -2148.779       0             -2087.4        -1750.56      
   8230000   989.37484     -2141.9243      0             -2076.702      -587.61328    
   8240000   1028.4745     -2140.7274      0             -2072.9276     -256.33044    
   8250000   977.6263      -2142.4234      0             -2077.9757      272.82354    
   8260000   998.00168     -2144.1496      0             -2078.3587      315.85012    
   8270000   969.43162     -2141.9228      0             -2078.0153     -265.18566    
   8280000   1014.9914     -2145.7726      0             -2078.8616      487.06893    
   8290000   963.18889     -2145.8175      0             -2082.3215      161.67786    
   8300000   980.62759     -2145.9467      0             -2081.3011     -116.73477    
   8310000   1041.6146     -2140.6602      0             -2071.9942      144.40703    
   8320000   1037.9693     -2142.2061      0             -2073.7804      472.70723    
   8330000   1030.4821     -2148.2463      0             -2080.3142      111.89839    
   8340000   976.16385     -2148.231       0             -2083.8797      411.24765    
   8350000   959.47738     -2145.1658      0             -2081.9145     -391.36266    
   8360000   1045.6192     -2141.1239      0             -2072.1939      477.20943    
   8370000   1044.1311     -2148.9989      0             -2080.1669     -277.82113    
   8380000   980.88076     -2142.4264      0             -2077.7641      168.00897    
   8390000   1001.854      -2143.8004      0             -2077.7555      543.59269    
   8400000   1049.0389     -2146.0578      0             -2076.9024      546.88423    
   8410000   996.10042     -2145.8425      0             -2080.1769      707.66574    
   8420000   977.01529     -2143.7001      0             -2079.2927      792.06126    
   8430000   1028.7338     -2142.9943      0             -2075.1774      714.93053    
   8440000   971.34934     -2145.7361      0             -2081.7022     -594.99542    
   8450000   1016.9965     -2145.8792      0             -2078.8361      126.76024    
   8460000   1040.6377     -2143.2232      0             -2074.6216      372.71002    
   8470000   992.72248     -2146.9832      0             -2081.5403      156.55776    
   8480000   1026.8294     -2141.4403      0             -2073.749       453.8356     
   8490000   1000.804      -2146.4705      0             -2080.4949     -69.938449    
   8500000   1022.1459     -2147.2434      0             -2079.8609     -427.90869    
   8510000   1003.2865     -2137.3151      0             -2071.1758      251.05541    
   8520000   994.01459     -2141.3099      0             -2075.7818      586.61807    
   8530000   972.92602     -2147.0139      0             -2082.876       38.078474    
   8540000   1014.7491     -2147.3558      0             -2080.4608      355.82094    
   8550000   1010.0739     -2143.1297      0             -2076.543      -215.94917    
   8560000   1024.4198     -2139.0431      0             -2071.5106      1145.6494    
   8570000   1010.06       -2143.0539      0             -2076.4681     -583.34969    
   8580000   988.01038     -2145.5597      0             -2080.4274      171.53736    
   8590000   1057.7123     -2146.778       0             -2077.0508      964.34636    
   8600000   965.95933     -2142.4526      0             -2078.7739      867.64762    
   8610000   979.37356     -2144.0886      0             -2079.5257      39.468112    
   8620000   969.4596      -2140.8774      0             -2076.9681     -3.0157746    
   8630000   910.82483     -2142.2305      0             -2082.1865     -452.04325    
   8640000   1067.5751     -2142.2204      0             -2071.843      -322.15195    
   8650000   925.16632     -2144.4096      0             -2083.4202      100.91609    
   8660000   997.46901     -2142.6527      0             -2076.8969      921.84723    
   8670000   1022.9329     -2146.202       0             -2078.7675      500.45904    
   8680000   956.57616     -2145.9498      0             -2082.8898     -572.87939    
   8690000   929.43034     -2146.6943      0             -2085.4237      5.8261427    
   8700000   1036.6676     -2140.2356      0             -2071.8957      169.1848     
   8710000   1044.2659     -2142.8448      0             -2074.004      -237.28983    
   8720000   1013.6121     -2147.5824      0             -2080.7624     -220.838      
   8730000   981.90337     -2147.0124      0             -2082.2827     -90.489339    
   8740000   1040.7063     -2144.2828      0             -2075.6767      252.51472    
   8750000   906.30934     -2147.7279      0             -2087.9815     -612.75118    
   8760000   999.81705     -2143.9899      0             -2078.0793      507.53191    
   8770000   1076.8259     -2145.3592      0             -2074.3719      150.67328    
   8780000   996.40754     -2143.8682      0             -2078.1824      39.581525    
   8790000   1020.6681     -2145.2251      0             -2077.9399      43.988653    
   8800000   1031.4022     -2143.5153      0             -2075.5226      325.81782    
   8810000   980.62766     -2140.847       0             -2076.2015      302.34716    
   8820000   989.24638     -2141.5432      0             -2076.3294      259.71049    
   8830000   1018.932      -2148.1223      0             -2080.9516      270.81047    
   8840000   1000.34       -2141.4874      0             -2075.5424      43.570586    
   8850000   939.89867     -2143.9145      0             -2081.9538     -330.93578    
   8860000   979.32433     -2147.3078      0             -2082.7481      191.31453    
   8870000   1032.5552     -2148.7478      0             -2080.679       533.71576    
   8880000   1014.651      -2143.8166      0             -2076.9281      605.61574    
   8890000   998.71833     -2144.7252      0             -2078.887       468.00274    
   8900000   961.62731     -2143.7399      0             -2080.3469     -310.73137    
   8910000   1029.016      -2149.7413      0             -2081.9059      619.21519    
   8920000   1007.6914     -2148.0509      0             -2081.6212      566.48716    
   8930000   975.57159     -2142.3958      0             -2078.0835     -684.29134    
   8940000   1083.0425     -2145.3825      0             -2073.9854      1195.0587    
   8950000   968.19404     -2142.3397      0             -2078.5138     -156.11153    
   8960000   984.47364     -2147.0087      0             -2082.1096      81.864919    
   8970000   1036.6406     -2142.4223      0             -2074.0841     -63.279323    
   8980000   997.29155     -2140.6271      0             -2074.8829      1645.4673    
   8990000   1019.6761     -2141.8338      0             -2074.614       823.25197    
   9000000   992.18721     -2143.9605      0             -2078.5528      273.38293    
   9010000   1060.6472     -2145.7299      0             -2075.8092      650.60593    
   9020000   1005.4538     -2142.2891      0             -2076.0069     -496.347      
   9030000   982.32407     -2141.0619      0             -2076.3044     -224.46431    
   9040000   1041.9891     -2145.007       0             -2076.3163      259.95001    
   9050000   971.36666     -2145.0196      0             -2080.9845     -12.325516    
   9060000   965.54258     -2146.2279      0             -2082.5768     -396.90735    
   9070000   1037.6056     -2150.3354      0             -2081.9336     -293.90438    
   9080000   1023.8187     -2143.3661      0             -2075.8732     -61.991717    
   9090000   1038.5613     -2141.7339      0             -2073.2692      453.62454    
   9100000   1071.4766     -2149.0876      0             -2078.453       865.2699     
   9110000   1044.7244     -2144.6022      0             -2075.7312      266.67167    
   9120000   956.07024     -2142.5875      0             -2079.5607     -619.08342    
   9130000   1016.6367     -2143.3034      0             -2076.284       1114.0708    
   9140000   1043.998      -2144.353       0             -2075.5299      1064.8835    
   9150000   1001.5122     -2140.6199      0             -2074.5976      590.98147    
   9160000   1021.7265     -2149.0323      0             -2081.6774      656.59623    
   9170000   1003.8526     -2143.6467      0             -2077.4701      129.82021    
   9180000   918.61757     -2147.9956      0             -2087.4379      21.792709    
   9190000   1000.2987     -2143.8128      0             -2077.8704     -180.58478    
   9200000   1101.4029     -2148.335       0             -2075.7275      423.92834    
   9210000   1010.3952     -2145.2959      0             -2078.6879     -77.193904    
   9220000   943.06        -2143.9353      0             -2081.7663     -264.92688    
   9230000   1036.9597     -2148.1474      0             -2079.7883      456.06956    
   9240000   1002.7939     -2145.3608      0             -2079.2539     -26.183343    
   9250000   994.506       -2144.8721      0             -2079.3116      709.11506    
   9260000   989.38576     -2142.4563      0             -2077.2333      536.78129    
   9270000   1002.7257     -2148.3549      0             -2082.2525     -436.4955     
   9280000   970.93218     -2142.2385      0             -2078.232      -582.18672    
   9290000   1003.0247     -2142.3865      0             -2076.2644     -350.83538    
   9300000   1009.4743     -2145.8975      0             -2079.3502     -249.40597    
   9310000   1009.1052     -2141.9799      0             -2075.457       838.49408    
   9320000   1008.2422     -2146.5275      0             -2080.0614     -428.23955    
   9330000   1042.3521     -2146.0305      0             -2077.3159      311.70338    
   9340000   988.57842     -2142.8011      0             -2077.6314      40.665512    
   9350000   983.5819      -2142.4501      0             -2077.6098      172.18167    
   9360000   959.47536     -2144.3466      0             -2081.0955     -647.3056     
   9370000   952.5799      -2143.3132      0             -2080.5166      399.83569    
   9380000   976.4361      -2149.0012      0             -2084.6319      87.55452     
   9390000   1062.4209     -2143.7573      0             -2073.7196      579.55498    
   9400000   939.91141     -2145.4648      0             -2083.5033      98.068126    
   9410000   956.42609     -2149.1734      0             -2086.1232      383.73136    
   9420000   961.90105     -2143.0196      0             -2079.6086      435.41207    
   9430000   1051.0919     -2141.6589      0             -2072.3681     -63.557814    
   9440000   1013.8664     -2140.0674      0             -2073.2306      1513.3792    
   9450000   969.29046     -2144.2512      0             -2080.353       477.34309    
   9460000   997.7598      -2143.7177      0             -2077.9427      705.26735    
   9470000   1082.6518     -2143.2407      0             -2071.8694      1059.0674    
   9480000   982.84289     -2143.5464      0             -2078.7548      111.07306    
   9490000   984.50473     -2145.568       0             -2080.6668     -519.05433    
   9500000   1097.9291     -2144.9592      0             -2072.5808      348.33116    
   9510000   1005.3639     -2146.3234      0             -2080.0472      42.715362    
   9520000   974.28799     -2145.9509      0             -2081.7233     -366.77348    
   9530000   977.01381     -2149.066       0             -2084.6587     -650.75404    
   9540000   958.84458     -2146.0528      0             -2082.8432     -280.97522    
   9550000   983.76232     -2136.901       0             -2072.0488     -390.71591    
   9560000   1012.7607     -2145.8585      0             -2079.0946     -500.3344     
   9570000   1030.0629     -2143.5846      0             -2075.6801     -100.36768    
   9580000   974.379       -2147.2016      0             -2082.9679     -384.56665    
   9590000   989.11727     -2141.4308      0             -2076.2255      346.66249    
   9600000   1035.6013     -2143.3413      0             -2075.0717      787.51901    
   9610000   1055.9613     -2146.247       0             -2076.6352      1182.633     
   9620000   930.25172     -2145.7836      0             -2084.459       251.49345    
   9630000   1001.2821     -2146.9701      0             -2080.9629      901.14308    
   9640000   1064.3721     -2149.5448      0             -2079.3785      830.34195    
   9650000   980.49623     -2144.2344      0             -2079.5974     -98.315071    
   9660000   995.89396     -2143.0826      0             -2077.4307     -107.42555    
   9670000   923.10834     -2143.762       0             -2082.9082     -551.01754    
   9680000   955.9564      -2141.7632      0             -2078.744       427.69907    
   9690000   1048.2526     -2144.3998      0             -2075.2962      701.4207     
   9700000   933.88636     -2146.4434      0             -2084.8791     -68.61712     
   9710000   958.18668     -2146.6536      0             -2083.4873     -269.54837    
   9720000   936.65667     -2148.0129      0             -2086.2659     -282.36114    
   9730000   1068.3683     -2142.7896      0             -2072.3599      1452.4194    
   9740000   995.97204     -2142.8106      0             -2077.1534     -538.22805    
   9750000   1040.8911     -2148.9309      0             -2080.3126      602.02714    
   9760000   1037.1246     -2144.6903      0             -2076.3203      117.63862    
   9770000   1038.6947     -2145.928       0             -2077.4545      319.64195    
   9780000   1027.3591     -2145.8288      0             -2078.1026      865.75427    
   9790000   974.76126     -2142.0606      0             -2077.8017      803.56489    
   9800000   1025.4808     -2144.8886      0             -2077.2861      1152.413     
   9810000   1036.5858     -2147.4598      0             -2079.1253      1436.5517    
   9820000   994.98055     -2142.858       0             -2077.2662      314.60798    
   9830000   958.19196     -2144.9901      0             -2081.8235      468.83566    
   9840000   951.92405     -2139.7193      0             -2076.966       359.10274    
   9850000   1013.7086     -2141.8993      0             -2075.0729      115.53818    
   9860000   993.31873     -2142.0081      0             -2076.5259      646.27987    
   9870000   963.40086     -2146.6275      0             -2083.1176      341.25127    
   9880000   1025.4975     -2146.1561      0             -2078.5526      354.57248    
   9890000   959.42208     -2148.2504      0             -2085.0028      90.055644    
   9900000   977.26573     -2145.3658      0             -2080.9418     -1353.0511    
   9910000   999.26816     -2144.9943      0             -2079.1199      675.69863    
   9920000   910.37818     -2149.3582      0             -2089.3436      121.75443    
   9930000   981.74507     -2143.6783      0             -2078.9591      460.35302    
   9940000   1033.6765     -2144.7458      0             -2076.6031     -33.329914    
   9950000   943.41451     -2141.8806      0             -2079.6882     -1135.2222    
   9960000   1055.3722     -2143.221       0             -2073.6481      515.56928    
   9970000   1044.8937     -2142.8141      0             -2073.9319      786.12471    
   9980000   989.55852     -2143.1619      0             -2077.9276     -591.30098    
   9990000   1024.1476     -2141.793       0             -2074.2785      433.0706     
  10000000   1023.9791     -2145.3058      0             -2077.8024      639.64408    
Loop time of 4393.51 on 1 procs for 10000000 steps with 511 atoms

Performance: 196.654 ns/day, 0.122 hours/ns, 2276.086 timesteps/s, 1.163 Matom-step/s
99.3% CPU use with 1 MPI tasks x 1 OpenMP threads

MPI task timing breakdown:
Section |  min time  |  avg time  |  max time  |%varavg| %total
---------------------------------------------------------------
Pair    | 4251.7     | 4251.7     | 4251.7     |   0.0 | 96.77
Neigh   | 2.2647     | 2.2647     | 2.2647     |   0.0 |  0.05
Comm    | 34.593     | 34.593     | 34.593     |   0.0 |  0.79
Output  | 49.388     | 49.388     | 49.388     |   0.0 |  1.12
Modify  | 44.703     | 44.703     | 44.703     |   0.0 |  1.02
Other   |            | 10.82      |            |       |  0.25

Nlocal:            511 ave         511 max         511 min
Histogram: 1 0 0 0 0 0 0 0 0 0
Nghost:           1410 ave        1410 max        1410 min
Histogram: 1 0 0 0 0 0 0 0 0 0
Neighs:              0 ave           0 max           0 min
Histogram: 1 0 0 0 0 0 0 0 0 0
FullNghs:        18182 ave       18182 max       18182 min
Histogram: 1 0 0 0 0 0 0 0 0 0

Total # of neighbors = 18182
Ave neighs/atom = 35.581213
Neighbor list builds = 3569
Dangerous builds = 0
write_data FINAL_STRUCTURE
System init for write_data ...
Total wall time: 1:13:13
