LAMMPS data file via write_data, version 10 Sep 2025, timestep = 10000000, units = metal

517 atoms
1 atom types

0 21.754625 xlo xhi
0 21.754625 ylo yhi
0 21.754625 zlo zhi

Masses

1 28.085

Atoms # atomic

7 1 1.3423182929393433 1.2049238432208618 1.5118056252053647 0 0 0
4 1 0.10274649779126839 21.751299175337532 0.028295601240163427 0 -1 0
513 1 2.75060734427081 2.5376968326650964 0.25460659375930556 0 0 0
130 1 5.5023651862619 2.7880118935861833 2.774850245925385 0 0 0
132 1 5.440550973960963 0.031846146708752826 0.1628538422122572 0 0 0
135 1 6.822601824693708 1.2345948186614593 1.4597371201783162 0 0 0
136 1 8.31706500519629 0.1840680554622217 2.8331475554062657 0 0 0
258 1 10.849229111182714 2.7230531776154767 2.642955745262864 0 0 0
263 1 12.114712309112383 1.4830198936393273 1.3115659681747507 0 0 0
264 1 13.492363114765817 0.006187881857839089 2.7193222945399285 0 0 0
386 1 16.292004554570138 2.640514387776327 2.652525724558104 0 0 0
391 1 17.675720783213798 1.1360089554339805 1.2455348701854156 0 0 0
2 1 21.63302802013723 2.5642123003474984 2.7165517932396943 -1 0 0
40 1 2.5298887375637364 5.187233958342432 2.8620790649345604 0 0 0
1 1 4.018719998421121 4.124550756421538 1.4790587096810226 0 0 0
6 1 5.376165168108509 5.294300189608466 0.054907475241467836 0 0 0
168 1 8.139749621964658 5.4284553415805465 2.65477998170594 0 0 0
129 1 9.514322254807507 4.062114528805969 1.2549563610478165 0 0 0
257 1 14.677021701549995 3.926041921995743 1.3879165707980103 0 0 0
296 1 13.591485770497426 5.380436369412437 2.775426393520793 0 0 0
424 1 19.00366332858845 5.385460623858355 2.359127272836743 0 0 0
385 1 20.387006889408795 4.000525916198941 1.1664896964394253 0 0 0
39 1 1.284087898739437 6.679606635513641 1.4621985656044054 0 0 0
35 1 1.4666547188078798 9.080115568511987 2.2531052248589676 0 0 0
517 1 5.422603724561316 7.996855391234992 2.8431480752802503 0 0 0
167 1 4.233802924093254 9.116762305202851 0.9490496862670944 0 0 0
164 1 6.6771538843979545 6.642057598599538 1.3942705184562725 0 0 0
290 1 11.000211661573992 8.034340664180728 2.735582564516684 0 0 0
295 1 12.268282035292716 6.7822140757098754 1.2077691374677684 0 0 0
294 1 13.668512750022035 8.215069542637686 0.023375839171366666 0 0 0
418 1 16.325315439105378 8.199368896505854 2.6623058462586267 0 0 0
423 1 17.401989425467875 6.583506364224899 1.1697287145118056 0 0 0
34 1 20.863232415774775 6.942248624055872 2.347068584306137 -1 0 0
417 1 19.909202597987704 8.811510646343104 1.3498925988092867 0 0 0
162 1 3.235734787829779 11.857877896090038 1.684815117411067 0 0 0
200 1 8.215986569344532 10.751892815835836 2.6852135369448513 0 0 0
199 1 6.874413867038746 12.014555323832662 1.2142462883994967 0 0 0
161 1 9.598000103871405 9.39098747102929 1.3086693020855018 0 0 0
327 1 12.437978483631625 12.186029626405903 1.401985881483376 0 0 0
324 1 10.993268777672434 10.738710288802112 0.1580713235854835 0 0 0
289 1 14.98953650459254 9.689373944240504 1.44214558356792 0 0 0
328 1 13.586723510310595 10.88153425122194 2.884422052274367 0 0 0
455 1 17.70636019462398 12.124324339547043 1.2244128934752794 0 0 0
515 1 21.475499745616965 10.940695002054193 1.7293996962105898 -1 0 0
456 1 18.86286810136661 10.915761454145667 2.856054762814989 0 0 0
71 1 0.5374350242987935 13.101000781340055 0.5862447539392861 0 0 0
65 1 4.183511153353548 14.998532299563097 1.4672680920242047 0 0 0
194 1 5.671775970588977 13.537231081368427 2.563472580681233 0 0 0
193 1 9.627880703557992 15.014208241204921 1.4242075372555703 0 0 0
322 1 11.058791936121441 13.620321965648282 2.6464121649374017 0 0 0
321 1 15.024387346374846 14.904121710054621 1.3855112000920602 0 0 0
450 1 16.32286952986769 13.549604653398488 2.5468766447641515 0 0 0
66 1 21.61422524526304 13.899986704015978 3.0536536340692915 -1 0 0
449 1 20.428792296800957 14.97828440665459 1.0949599539798014 0 0 0
103 1 1.4624513729639737 17.74595451807993 1.5199035621859132 0 0 0
104 1 2.9399139466999267 16.46968499008384 2.8696428722207217 0 0 0
231 1 6.9080147548894155 17.69373760009168 1.3545336917628943 0 0 0
232 1 8.325698902114992 16.33133011394051 2.6149933894791326 0 0 0
359 1 12.258716434422759 17.728397602626053 1.2851849210033746 0 0 0
360 1 13.608151334765585 16.2428977065051 2.5398636645921413 0 0 0
487 1 17.706701510675213 17.611995140980174 1.505613938728546 0 0 0
484 1 16.38238224849813 16.268703068525937 0.0758268270660576 0 0 0
100 1 21.745165561421842 16.425289221854786 0.1523287576904238 -1 0 0
488 1 19.05784501081751 16.282221287716446 2.7182855868210547 0 0 0
8 1 2.8632525376249345 21.718328767319488 2.6336407176482814 0 -1 0
102 1 2.7520053788835273 18.95914851926876 0.06883604031558029 0 0 0
226 1 5.664329141817494 19.003479554371705 2.737928126022833 0 0 0
97 1 4.062048512270639 20.25436622150774 1.3590033270715105 0 0 0
230 1 8.364353499668146 19.075110091281054 0.006479095227147907 0 0 0
225 1 9.617673930075833 20.42288236465594 1.390928542818443 0 0 0
354 1 11.00355222006796 18.99316772321889 2.77988964582736 0 0 0
260 1 10.944771263691791 21.6913051735953 0.136044212378561 0 -1 0
353 1 14.996625255157829 20.354749071120878 1.450637625681355 0 0 0
358 1 13.738628394963472 19.030108875241474 21.73463077932201 0 0 -1
482 1 16.42060646466074 19.03566752799441 2.802446328846667 0 0 0
392 1 18.975059135340093 21.71680526367083 2.8257560750176465 0 -1 0
98 1 21.65809389623016 18.955622033786074 2.8599817445071682 -1 0 0
481 1 20.35616167590834 20.491575983452968 1.3707282079909322 0 0 0
486 1 18.986062310945208 19.027645916456652 0.12877979515725838 0 0 0
14 1 2.6398837178526904 2.5972059957571147 5.503099134641524 0 0 0
3 1 4.0874366765921915 1.4180407420577728 3.9844714197206614 0 0 0
140 1 5.479812855719718 0.08280884993397905 5.451408149063254 0 0 0
142 1 8.207254751612721 2.7968408217181002 5.488444645142854 0 0 0
131 1 9.686682033644253 1.4463184052715314 4.16690285567566 0 0 0
259 1 14.838514815228914 1.3407459751232704 4.153354771816399 0 0 0
270 1 13.37666057313637 2.900507090944493 5.515713045411092 0 0 0
398 1 18.884287741699143 2.5796637089766183 5.416909205258981 0 0 0
387 1 20.285616262108654 1.2339929360974569 4.22413290356177 0 0 0
5 1 1.162485482757755 3.8083692137709764 4.122031643545388 0 0 0
44 1 0.023503087499647277 5.2841745094255055 5.606608739351263 0 0 0
172 1 5.355633401512095 5.281181463502206 5.474347112168497 0 0 0
514 1 6.806605667711232 4.16515633325152 4.140981375319351 0 0 0
300 1 10.968414529135005 5.40884918900358 5.582232605354008 0 0 0
261 1 12.103445509433458 4.070517079424452 4.032298886441555 0 0 0
389 1 17.763865156849896 4.026099774494059 3.8393379113693813 0 0 0
428 1 16.38864571491726 5.472524528282464 5.30131078270255 0 0 0
48 1 2.843628537624814 8.063498089092423 5.611696386137241 0 0 0
37 1 0.8519452606888653 8.893218451220621 4.6161014403444565 0 0 0
133 1 3.8625262773565066 6.536570671933932 4.15376582830273 0 0 0
174 1 8.307996913039936 7.953040859975147 5.54244934972081 0 0 0
163 1 9.69462288629852 6.649428348611198 4.104718578346735 0 0 0
291 1 14.958729855277436 6.7236449135607534 4.078400616301455 0 0 0
302 1 13.682711490425971 7.977472438552122 5.44976686938483 0 0 0
430 1 18.970489227944558 8.262283436165264 5.592253997874221 0 0 0
419 1 20.88239444492099 7.310087674506541 4.711707341285528 0 0 0
72 1 1.653557234763985 12.040605663969307 3.6372279300979975 0 0 0
76 1 0.22877545436205562 10.973690220692239 5.472393799777466 0 0 0
46 1 3.6262744001358733 9.865107070865884 3.6019057574944204 0 0 0
204 1 5.486198467313915 10.742078747367959 5.582162455921508 0 0 0
165 1 6.966707028417327 9.42690628965558 4.1342838789667 0 0 0
332 1 10.862953770515299 10.990688344038691 5.285419692360006 0 0 0
195 1 9.461446685526255 12.2893522824852 3.967875151311253 0 0 0
293 1 12.243702463718291 9.498277660950134 4.1615231223811096 0 0 0
323 1 14.896339868840746 12.353892630665761 4.043305473575064 0 0 0
421 1 17.5795317078635 9.422294988528526 4.095822227269269 0 0 0
460 1 16.4022052665588 11.063460806286887 5.326692279725399 0 0 0
451 1 20.24968540533516 12.26490212610933 4.234302764176214 0 0 0
69 1 1.522410063559173 15.372756206810083 4.204638447601686 0 0 0
78 1 2.7880496823765246 13.736777905239661 5.620988034283457 0 0 0
67 1 4.480816173908973 12.534179348594037 4.45265902401788 0 0 0
197 1 7.017713853197212 15.133251170113923 4.072557112456445 0 0 0
206 1 8.167338616597425 13.70555262679528 5.430857480422349 0 0 0
325 1 12.364721945608325 15.052769616135153 4.1144865004933475 0 0 0
334 1 13.620106288537142 13.573613896595107 5.485977325547786 0 0 0
453 1 17.627072700392016 14.879759714220016 4.066307690310237 0 0 0
462 1 18.999542341508064 13.639990770268728 5.517011099827812 0 0 0
99 1 4.3190501368475145 17.74732255766245 4.268145398499317 0 0 0
236 1 5.633008840433978 16.380384194447394 5.753341936272001 0 0 0
227 1 9.590997101731684 17.681873324461407 4.134932286974334 0 0 0
364 1 10.953470584671756 16.28625374929558 5.446606556217715 0 0 0
355 1 15.011730010078123 17.65510705482584 4.102404967178561 0 0 0
492 1 16.38162412165095 16.264542098047016 5.503805324272893 0 0 0
108 1 21.75122477240271 16.465620977788515 5.602636878848414 -1 0 0
483 1 20.37727634710527 17.52212980569498 4.159913665211951 0 0 0
101 1 1.4244981250761803 20.430021648915822 3.996480640086107 0 0 0
110 1 2.7670561273588183 19.27663391753995 5.708417414576759 0 0 0
229 1 6.97747993031219 20.473501751625214 4.13368812552264 0 0 0
238 1 8.24148840101595 19.16004614139366 5.4617845293230145 0 0 0
268 1 10.974737995858199 21.739776658402512 5.399383527676927 0 -1 0
357 1 12.258610188256196 20.4173463482758 4.083667059242074 0 0 0
366 1 13.700538425073825 19.07335126171927 5.289267687050563 0 0 0
396 1 16.296518913927706 21.751468824264272 5.49090055055363 0 -1 0
485 1 17.677794966485816 20.425324369909088 4.202831914780184 0 0 0
12 1 21.51709412113003 21.49690772683995 5.459557511542814 -1 -1 0
494 1 18.98115252446331 18.944315801092287 5.479245292792638 0 0 0
15 1 1.2996714105192102 1.1414889014579872 6.809546702928665 0 0 0
16 1 2.6528694837842797 21.745032549428604 8.212981661374457 0 -1 0
138 1 5.705829144907407 2.620013046901415 8.299981513915744 0 0 0
143 1 7.090563543683108 1.3165601469317747 6.962102280673975 0 0 0
266 1 11.083485813232512 2.8027487323151656 8.31716013369852 0 0 0
271 1 12.242232044777777 1.4295767819586236 6.8651775982582635 0 0 0
399 1 17.614929951749136 1.2831067486675707 6.852437302461726 0 0 0
394 1 16.197535228250732 2.6403821954872426 8.219665232975807 0 0 0
10 1 21.575905249495197 2.7565541471478134 8.029253782819376 -1 0 0
516 1 2.887465037441594 5.273384358155248 8.294861342649915 0 0 0
9 1 4.126643048503279 3.7873090553137785 6.9847546304096 0 0 0
176 1 8.338332283540506 5.3865930592593765 8.462250390731104 0 0 0
137 1 9.68408508380432 4.078524237310311 7.01910501997792 0 0 0
265 1 14.96613272091931 4.035366522306058 6.795681545467985 0 0 0
304 1 13.69394453412017 5.44541740922317 8.144256346829634 0 0 0
432 1 18.877030867826505 5.454620774500716 8.165166907688384 0 0 0
393 1 20.004036648699163 4.047876724670439 6.671287495454767 0 0 0
47 1 1.4962517189321936 6.510919686956199 6.963428072461345 0 0 0
170 1 5.413182626065588 8.102467299218056 8.23372995728209 0 0 0
175 1 6.7214859673733525 6.595016801790133 6.963703174560693 0 0 0
298 1 10.987824361074823 8.302428150847286 8.263760794150716 0 0 0
303 1 12.170062206949991 6.87559915615838 6.8484879782657435 0 0 0
426 1 16.311707814282105 8.231772936139345 8.187885915781552 0 0 0
431 1 17.561393982704995 6.800801972337932 6.729374111100008 0 0 0
42 1 21.721450098203857 8.01954274486046 8.178706048409587 -1 0 0
80 1 2.9443904754908723 11.05323640560212 8.365919502512101 0 0 0
79 1 1.582449071175199 12.380082766671727 7.065582656460653 0 0 0
41 1 4.004947234888638 9.605992831235303 7.003215495197284 0 0 0
208 1 8.311342170604405 10.899627666457494 8.118992176917299 0 0 0
207 1 6.853807483304897 12.161474641092203 6.7466508485589785 0 0 0
169 1 9.589734021609424 9.646215778207088 6.758407856868575 0 0 0
335 1 12.268618054701875 12.24791019734204 6.753795959476765 0 0 0
297 1 14.955226407563702 9.653671329091166 6.839789609993277 0 0 0
336 1 13.671634006012964 10.896996283044066 8.280974957444862 0 0 0
463 1 17.687304200720128 12.356401258618055 6.901186715614397 0 0 0
425 1 20.39042058845879 9.609091894344537 6.935723022692336 0 0 0
464 1 18.95688061214698 10.924431660686878 8.24590264350582 0 0 0
73 1 4.235419595926685 14.934655525600471 6.883682262745999 0 0 0
202 1 5.493596433881903 13.54381280430606 8.261774984762194 0 0 0
201 1 9.522741814951152 14.950773011545584 6.662689367806765 0 0 0
330 1 10.992254904447625 13.783177377750267 8.162400344895609 0 0 0
329 1 14.953695734609473 14.986014597408365 6.898491652494366 0 0 0
458 1 16.45147904265044 13.610925756872355 8.235896672172995 0 0 0
74 1 0.027291120708397898 13.78696882952352 8.197905547851304 0 0 0
457 1 20.365342259312772 15.05684480303176 6.854530156375583 0 0 0
111 1 1.373817469386394 17.878462091782822 6.929979869953846 0 0 0
112 1 2.76136091824456 16.309976728309604 8.038315265647672 0 0 0
107 1 4.167513242886981 17.752091677348524 9.262590764675533 0 0 0
239 1 6.906584056379726 17.929274746357912 6.981216813666449 0 0 0
240 1 8.254332780235126 16.452149223638344 8.13775342074732 0 0 0
367 1 12.351713035530313 17.55851438522361 6.683703163696257 0 0 0
368 1 13.575287343417495 16.249898759262063 8.156583516247915 0 0 0
495 1 17.662344147070744 17.630662150552645 6.895613678523519 0 0 0
496 1 19.04128705998234 16.3491961046128 8.254508092586084 0 0 0
106 1 0.05497318121587498 19.12536553431367 8.369505858361476 0 0 0
234 1 5.470948801751133 19.24413343345128 8.113310770154184 0 0 0
105 1 4.0954322350827645 20.66230456527098 6.893244013272376 0 0 0
144 1 8.563793710341576 21.710144492971306 8.26093251803506 0 -1 0
233 1 9.806969381872443 20.39161127231564 6.947620208149242 0 0 0
362 1 11.139663304847515 18.875985906321514 8.150248035315366 0 0 0
272 1 13.562531525653537 21.73508094662462 8.22006488002411 0 -1 0
361 1 14.893360302909276 20.407734280214026 6.716255346305234 0 0 0
490 1 16.25252106415234 19.13810488427885 8.111751953069486 0 0 0
400 1 18.976402589776857 21.653770168313358 8.156707664835489 0 -1 0
489 1 20.3225324986318 20.29731928207646 6.853270619052516 0 0 0
22 1 2.6954798710927546 2.745270567044411 10.941510992450832 0 0 0
23 1 1.2989780957820993 1.416869657114946 12.292853819232448 0 0 0
20 1 0.06611991157264926 0.04527222825230237 10.829718664630885 0 0 0
11 1 4.032543011632213 1.3996663593409118 9.441961068253812 0 0 0
148 1 5.632363178984701 0.04218855841637213 10.778698931012576 0 0 0
150 1 8.274566255570575 2.671852194106252 10.972227371816796 0 0 0
151 1 6.821762422812619 1.3396519124017292 12.26892080039051 0 0 0
139 1 9.64876226983675 1.3667884884327384 9.618057945698265 0 0 0
279 1 12.281460234642113 1.138085100411592 12.342961609344067 0 0 0
267 1 14.91892881778279 1.2714816422711734 9.661818981237387 0 0 0
278 1 13.596700465189766 2.6228807755461863 11.006904620337021 0 0 0
407 1 17.794394185761504 1.2006485068370694 12.315683002818226 0 0 0
395 1 20.321220999916893 1.2692217130823074 9.43939203145241 0 0 0
406 1 19.0617063655764 2.65064595155166 10.972922267158696 0 0 0
13 1 1.3209511659950246 4.0979143869869965 9.471440190582184 0 0 0
180 1 5.503873139098241 5.348190270160644 10.811934383893753 0 0 0
17 1 4.210691940644079 3.8628834584537324 12.30063336443876 0 0 0
141 1 6.934343660121576 3.91752874795691 9.656976036662407 0 0 0
269 1 12.329871473814324 4.171332169516987 9.647634453710348 0 0 0
308 1 10.981359587981116 5.442645769215129 10.907375152768056 0 0 0
145 1 9.735526441755045 4.041652071663748 12.221656462049832 0 0 0
397 1 17.591571678983794 4.002887997584125 9.636265949999247 0 0 0
436 1 16.247735541352935 5.272657648124333 11.16586496430082 0 0 0
52 1 21.61116845541876 5.421460182439 10.82824607081025 -1 0 0
401 1 20.417258293975564 3.977665284596012 12.347946397248577 0 0 0
54 1 2.7874047103290986 8.264981540985215 10.936933453996481 0 0 0
55 1 1.4391440894299716 6.752173883361807 12.172202836076693 0 0 0
43 1 4.1047628672722105 6.797492244326389 9.533202498505274 0 0 0
182 1 8.276509680872575 8.056920694484834 10.866400643415469 0 0 0
183 1 6.776148410152012 6.69288929497738 12.207892139840089 0 0 0
171 1 9.703769737232616 6.886440747508077 9.572376444718586 0 0 0
311 1 12.25308777959513 6.863454091474752 12.342697810189348 0 0 0
299 1 15.091247690940575 6.774066940829002 9.62835331234323 0 0 0
310 1 13.672554641267691 8.156016071891473 10.929186840756714 0 0 0
439 1 17.842797843775305 6.629491795745586 12.446664128295147 0 0 0
427 1 20.1466487810936 6.736282620665789 9.512770430297834 0 0 0
438 1 18.98455956184854 8.009073971710283 11.037898417450691 0 0 0
45 1 1.5194588214050129 9.613726833022247 9.564431055034333 0 0 0
87 1 1.4490758756631403 12.233260029377298 12.119859929919702 0 0 0
84 1 0.00811728561498816 10.861188245924152 10.842678561062403 0 0 0
49 1 4.217004347674509 9.696825385692502 12.370210988999869 0 0 0
212 1 5.664049382826071 10.856271149575942 10.974222816000813 0 0 0
75 1 4.2501898823160085 12.283248886608943 9.646385661694701 0 0 0
173 1 6.992748933144351 9.536528511953595 9.62408341424382 0 0 0
215 1 6.939808926763563 12.264423499333317 12.245970114368744 0 0 0
203 1 9.718993898234732 12.304844887656769 9.483087848683668 0 0 0
340 1 10.990947399780014 10.851172232583759 10.855651855478516 0 0 0
177 1 9.544170150138047 9.548624920526574 12.117844532804721 0 0 0
343 1 12.24284021403906 12.041592532868286 12.287387247775614 0 0 0
331 1 15.072406996697861 12.243463319622139 9.523330841338419 0 0 0
301 1 12.546599443890582 9.440971774283621 9.602497155358146 0 0 0
305 1 15.20064754431664 9.474652830910715 12.320292315922169 0 0 0
429 1 17.80067448786517 9.466244323798971 9.688084807923888 0 0 0
468 1 16.39347272031533 10.844974763531354 11.008579401068195 0 0 0
471 1 17.769158012585027 12.232252769313957 12.313066133719666 0 0 0
433 1 20.32230986188072 9.479216411704948 12.204844152747729 0 0 0
459 1 20.55895673953264 12.335177004423798 9.45897889162755 0 0 0
77 1 1.4673157430919503 15.111456733048492 9.566342242889453 0 0 0
86 1 2.782654779166688 13.692871668748928 10.941831993256933 0 0 0
81 1 4.055102901681065 15.010995796746863 12.258802689688634 0 0 0
205 1 6.842401224348399 15.031000371136438 9.4206546644306 0 0 0
214 1 8.281626983400608 13.614042461751685 10.695716565812868 0 0 0
333 1 12.404886188119557 14.9820969115531 9.748568386724926 0 0 0
209 1 9.392572847034282 14.880688178262956 12.314456394189566 0 0 0
342 1 13.50745238006294 13.295639624852733 10.892945027304513 0 0 0
337 1 14.754329784732757 14.78713025847831 12.39961771092581 0 0 0
461 1 17.728645847684884 14.903678301665922 9.743337376687949 0 0 0
470 1 19.208311732685488 13.527408869414584 10.961979036298201 0 0 0
465 1 20.640751337384145 14.955608089938284 12.310112572932274 0 0 0
116 1 0.05522408704045527 16.31425513060302 10.901216822308612 0 0 0
119 1 1.4933376757837917 17.704791927502583 12.232011155168406 0 0 0
244 1 5.426730066967011 16.393199468342946 10.785416967612198 0 0 0
247 1 6.860027338807751 17.501802346910694 12.395144570568968 0 0 0
235 1 9.596616810241608 17.69445129664468 9.531942349265881 0 0 0
372 1 10.831035698429751 16.250877128901458 11.051523872071831 0 0 0
375 1 12.267704027664056 17.704999051576326 12.296873590754771 0 0 0
363 1 14.9770345247623 17.61763298472278 9.565607023757131 0 0 0
500 1 16.176046202868918 16.217815597977594 10.928420806150305 0 0 0
503 1 17.580601322420307 17.507434603267566 12.18775414870185 0 0 0
491 1 20.36489321904781 17.743814704747088 9.534035043973015 0 0 0
109 1 1.4782334597145625 20.447550127584382 9.585981994169645 0 0 0
118 1 2.754984868360469 19.117480801036177 10.766734182358034 0 0 0
113 1 4.050170544499165 20.46164194914131 12.2365532246513 0 0 0
237 1 6.91599536772321 20.341878398340256 9.53214882917922 0 0 0
246 1 8.189868627076633 18.965497275920487 10.987599808295048 0 0 0
276 1 10.996293220310868 21.60160051905589 10.929859477229241 0 -1 0
241 1 9.606798552326097 20.365181834086048 12.292061251559282 0 0 0
365 1 12.257165791605113 20.354415981242845 9.56318671684857 0 0 0
374 1 13.741644749679926 19.039607070814515 11.0526310940384 0 0 0
369 1 15.207762337957746 20.353128469396502 12.337998354649793 0 0 0
404 1 16.483837141075465 0.03663762296436346 10.788001082828925 0 0 0
493 1 17.646945371716885 20.257356254352203 9.508535243085682 0 0 0
502 1 18.94924043747335 18.836868678575566 10.861776635031102 0 0 0
497 1 20.473039132454712 20.303677699920254 12.170967385822623 0 0 0
19 1 4.182004486092867 1.1370705692737573 14.97788715161087 0 0 0
146 1 5.527146382662285 2.5863859599866856 13.77629381769526 0 0 0
147 1 9.663011395022135 1.16541947401551 14.997547648882394 0 0 0
274 1 10.985454649702916 2.5196059504224473 13.611905290546076 0 0 0
275 1 14.96521918237415 1.1926357213645182 14.945266717582484 0 0 0
402 1 16.39859769347652 2.6157968167481647 13.658668876995257 0 0 0
18 1 21.715008683223054 2.5475759734817682 13.668105119450958 -1 0 0
403 1 20.511548857133032 1.1646155195453256 15.063615298515316 0 0 0
21 1 1.4018703389896587 3.9439875827776922 14.862659623070305 0 0 0
56 1 2.7667237028422473 5.364285402810263 13.59100820731331 0 0 0
149 1 6.954051577474309 4.040012901164198 15.043332855004838 0 0 0
184 1 8.295943375148934 5.413566678188316 13.533781017563838 0 0 0
277 1 12.240171676676315 3.973531293858341 14.916553000813186 0 0 0
273 1 14.759424442269461 3.9133600017278267 12.509885210199588 0 0 0
312 1 13.445562149839406 5.395093039280144 13.752482327246462 0 0 0
405 1 17.673051963320088 3.8351738327080582 15.18129860844825 0 0 0
440 1 19.061791215166743 5.294070065756607 13.873165537339991 0 0 0
51 1 4.201433412561334 6.641090762687939 15.011241195462425 0 0 0
178 1 5.512872828467437 7.987310593281182 13.69407033245454 0 0 0
179 1 9.592193916923375 6.7902126141930035 14.95562760483917 0 0 0
306 1 10.791655556813835 8.39308750293364 13.576927554682529 0 0 0
307 1 14.830937762279875 6.6523204851416216 14.958770508788223 0 0 0
434 1 16.29658781333827 7.8876647699249185 13.716596236556391 0 0 0
50 1 21.66924994800849 8.0987262621498 13.495467972511957 -1 0 0
435 1 20.447837739776006 6.699347801239414 15.085525474410074 0 0 0
53 1 1.3621810821264517 9.474628943921418 14.808264432244307 0 0 0
88 1 2.728648447762783 10.847053767402505 13.568556961686166 0 0 0
83 1 4.17217539786836 12.115179820137653 15.064266493295879 0 0 0
181 1 6.864738346968424 9.47330519003005 14.927339346629068 0 0 0
216 1 8.24076803859878 10.845452177584304 13.567537997336174 0 0 0
211 1 9.575727478654287 12.246172594125714 14.895272433307207 0 0 0
309 1 12.183277918402974 9.67357784571464 15.039615230134261 0 0 0
344 1 13.740256935240614 10.84076066827386 13.692322876513025 0 0 0
339 1 14.954671490138896 12.171344243244517 15.151396733443592 0 0 0
437 1 17.730696341675714 9.37486989186938 15.076089145782822 0 0 0
472 1 18.963858457714075 10.74502685498854 13.672175315299791 0 0 0
467 1 20.363789112188822 12.17136660644447 14.913051925385146 0 0 0
85 1 1.4135506276407703 14.977028764163924 14.93868751794062 0 0 0
82 1 0.1412550752321508 13.540856488523277 13.743128978525466 0 0 0
210 1 5.387568431310764 13.600163044095924 13.632890872146596 0 0 0
213 1 6.612144498872221 14.923764457494032 14.971841982672169 0 0 0
338 1 10.819847938086793 13.695961063051781 13.585059347928055 0 0 0
341 1 12.084253073062813 15.018896568869975 15.208437308724777 0 0 0
466 1 16.386907367441733 13.46066982814738 13.823995439013254 0 0 0
469 1 17.90221868697522 14.82185980059085 14.994327704815207 0 0 0
120 1 2.716077883879449 16.423173803785716 13.67357939028531 0 0 0
115 1 4.106891420683989 17.65692828025678 14.94176990566187 0 0 0
248 1 8.213734913722524 16.151280034917704 13.631506022712195 0 0 0
243 1 9.484601973542313 17.56909384384841 15.068212211583687 0 0 0
371 1 15.081575715352798 17.483294199991562 15.026257668249277 0 0 0
376 1 13.458142643247148 16.17810348038884 13.680076204260923 0 0 0
499 1 20.49200622076563 17.64158208104563 14.98446784103998 0 0 0
504 1 19.162252252590477 16.262976560111387 13.461886787946352 0 0 0
24 1 2.6337919063326307 21.70559374631638 13.499981773944551 0 -1 0
117 1 1.4247379557911697 20.44011838209355 14.964258791564063 0 0 0
114 1 0.17998455543178823 18.992073918365268 13.625912410144272 0 0 0
242 1 5.46315651309694 19.06645823447795 13.535222026183327 0 0 0
152 1 8.189611527143406 21.64283641953979 13.601850044527032 0 -1 0
245 1 6.7590770284168915 20.28437355904121 14.907533256647733 0 0 0
370 1 10.793102185613172 18.90336641873025 13.650923289931951 0 0 0
373 1 12.296010111868743 20.073646664612223 15.015852026243953 0 0 0
280 1 13.581633901940748 21.539757988042677 13.62030595095564 0 -1 0
498 1 16.395306404682476 18.857266849933783 13.768098405527848 0 0 0
501 1 17.765121039787264 20.370596496693206 15.036911147439943 0 0 0
408 1 19.30210548408728 21.546046372013436 13.738709798009697 0 -1 0
30 1 2.6632529212636107 2.568526165830312 16.159993764259156 0 0 0
31 1 1.5089576416494392 1.236902375629927 17.579365224565535 0 0 0
158 1 8.157218650047538 2.4864584777298386 16.267784305742342 0 0 0
159 1 6.923312292692037 1.088386560197365 17.560008305946894 0 0 0
287 1 12.160557962720443 1.1115776676535867 17.717968312493785 0 0 0
286 1 13.56825354815981 2.4566901890387 16.24132085259939 0 0 0
415 1 17.699229518493173 1.3332284326333281 17.631770898040426 0 0 0
414 1 19.2319499675721 2.6461787885777093 16.42004405899518 0 0 0
60 1 0.17730520941870784 5.224674973311919 16.280662590149046 0 0 0
25 1 4.164886819771961 3.791236195187281 17.498351791573754 0 0 0
188 1 5.569690670377626 5.238319261232898 16.303442873053 0 0 0
153 1 9.579832808418496 3.7824465633649167 17.629764347426125 0 0 0
316 1 10.841285435363817 5.398154776868199 16.369177427853813 0 0 0
281 1 14.87907663029783 3.9286198486752584 17.5037601718335 0 0 0
444 1 16.24175525881184 5.280725776368237 16.382527917153862 0 0 0
409 1 20.651960114241078 3.9063535554456847 17.74506433220378 0 0 0
63 1 1.3682094144497343 6.527230641665946 17.633029813939384 0 0 0
62 1 2.5947380908843636 8.030115499312059 16.125367665236542 0 0 0
57 1 3.982461748303471 9.28678258101182 17.46459815604794 0 0 0
190 1 8.215118229523608 8.085938347125898 16.14678232303753 0 0 0
191 1 6.877507077368243 6.692355991054184 17.587143981929668 0 0 0
319 1 12.048383415877352 6.909269843019243 17.707823494626947 0 0 0
318 1 13.467067418914212 8.085684349478774 16.305290105692677 0 0 0
447 1 17.63008241335665 6.5436943150063 17.78597922512507 0 0 0
446 1 18.99647178803789 8.08987232898563 16.422795211285234 0 0 0
95 1 1.2867492446407682 12.149506800802827 17.443422711848235 0 0 0
220 1 5.469361662347857 10.677422744223044 16.263439413445298 0 0 0
223 1 6.859589002694639 12.084215541375404 17.52633240610294 0 0 0
185 1 9.459966192195981 9.577167736864359 17.72658820112125 0 0 0
348 1 10.765696573059136 10.96073625968947 16.34866545984419 0 0 0
351 1 12.276605525044124 12.235485186483599 17.674591446723518 0 0 0
313 1 14.931434847461752 9.390363472091016 17.52705935345179 0 0 0
476 1 16.457991992644736 10.7864892445328 16.426790072138655 0 0 0
479 1 17.77403712994166 12.042756789378704 17.708974912113987 0 0 0
441 1 20.48448612834163 9.367080325035795 17.567300396898887 0 0 0
92 1 21.695044473988865 10.775390219571246 16.15984520865507 -1 0 0
94 1 2.8242607335959584 13.657549844328392 16.332317377273444 0 0 0
89 1 4.166995472535796 15.03104975653345 17.747828610090213 0 0 0
222 1 8.254626335190533 13.542850843563693 16.171528033206133 0 0 0
217 1 9.572672897088088 14.864680958952503 17.750110471911043 0 0 0
345 1 15.05664603855055 14.859206870545194 17.57416981912225 0 0 0
350 1 13.596607149546456 13.523602405343992 16.391895382005977 0 0 0
473 1 20.437192097091742 14.809866491589613 17.71641901596462 0 0 0
478 1 19.14931958833628 13.407805684362726 16.46974271680689 0 0 0
127 1 1.3413312141308082 17.642484504617997 17.590431804548423 0 0 0
252 1 5.4616885820079135 16.38855326050074 16.322257159622737 0 0 0
255 1 6.849128800139049 17.62269570713869 17.7205054378964 0 0 0
380 1 10.833094318023898 16.375623162046715 16.568763538656135 0 0 0
383 1 12.295595948150217 17.692540543202778 17.719467362378023 0 0 0
508 1 16.404992733010523 16.18787238362889 16.340340305067137 0 0 0
511 1 17.819555326413845 17.588358595843786 17.71044729320456 0 0 0
124 1 21.722450594845146 16.225255771427786 16.338247036220405 -1 0 0
28 1 0.10691435284275161 21.586935444256827 16.26289638600465 0 -1 0
126 1 2.770750126156597 18.999868716097506 16.34267976327412 0 0 0
156 1 5.419586866274607 21.482997008869077 16.35793324259563 0 -1 0
121 1 4.093237553457907 20.24176596174035 17.682346012631164 0 0 0
254 1 8.05694413599309 18.909513911678417 16.277281123348395 0 0 0
284 1 10.964065372398219 21.66999109385468 16.255520459477424 0 -1 0
249 1 9.51376626025224 20.246227508661597 17.492648620887806 0 0 0
377 1 15.080958978009688 20.453150008341755 17.63303781074509 0 0 0
382 1 13.829278884849447 18.96749044425878 16.34982597849414 0 0 0
412 1 16.39486898798607 0.0020779255743761382 16.39660559596522 0 0 0
505 1 20.598961932488674 20.3551464487599 17.79097233888535 0 0 0
510 1 19.19017052573678 18.893840062185465 16.45044175630669 0 0 0
26 1 0.15075222283602013 2.57013045104198 19.088523500147804 0 0 0
154 1 5.544676578614988 2.5008748192743573 18.902534027911464 0 0 0
27 1 4.024635408623516 1.3209482995175226 20.47367491376417 0 0 0