LAMMPS (10 Sep 2025)
OMP_NUM_THREADS environment is not set. Defaulting to 1 thread.
  using 1 OpenMP thread(s) per MPI task
Loaded 1 plugins from C:\Users\lmike\AppData\Local\LAMMPS 64-bit 10Sep2025 with GUI\plugins
# LAMMPS input generated from LammpsInputFile with pymatgen v2025.10.7

# STYLES
units metal
atom_style atomic

# SET UP CALCULATION
read_data starting_config.dat
Reading data file ...
  orthogonal box = (0 0 0) to (21.754625 21.754625 21.754625)
  1 by 1 by 1 MPI processor grid
  reading atoms ...
  517 atoms
  read_data CPU = 0.002 seconds
pair_style sw
pair_coeff * * Si.sw Si
Reading sw potential file Si.sw with DATE: 2007-06-11
velocity all create 700 5988549

# CALCULATION PARAMETERS
fix f1 all nvt temp 700.0 700.0 $(100.0*dt)
fix f1 all nvt temp 700.0 700.0 0.10000000000000000555
thermo 100000
thermo_style custom step temp press spcpu cpuremain

# RUN CALC AND WRITE OUTPUTS
dump d1 all custom 100 state_dump id type x y z vx vy vz
run 10000000
Neighbor list info ...
  update: every = 1 steps, delay = 0 steps, check = yes
  max neighbors/atom: 2000, page size: 100000
  master list distance cutoff = 5.77118
  ghost atom cutoff = 5.77118
  binsize = 2.88559, bins = 8 8 8
  1 neighbor lists, perpetual/occasional/extra = 1 0 0
  (1) pair sw, perpetual
      attributes: full, newton on
      pair build: full/bin/atomonly
      stencil: full/bin/3d
      bin: standard
Per MPI rank memory allocation (min/avg/max) = 3.12 | 3.12 | 3.12 Mbytes
   Step          Temp          Press          S/CPU         CPULeft    
         0   700            43817.159      0              0            
    100000   721.47434      15699.142      627.54087      15775.865    
    200000   752.40428      16052.945      472.88878      18170.101    
    300000   673.49223      13620.043      418.77126      19710.796    
    400000   671.31819      13130.13       417.9703       20372.728    
    500000   698.74237      14425.844      520.86346      19776.199    
    600000   736.89914      14006.019      529.40958      19265.962    
    700000   729.77221      13044.473      528.18495      18853.357    
    800000   687.75505      14178.329      526.29277      18504.399    
    900000   729.32874      13251.363      517.26077      18224.31     
   1000000   685.62365      12505.023      515.71052      17966.803    
   1100000   677.3194       13470.719      518.37992      17712.782    
   1200000   690.98258      14084.072      522.57431      17457.591    
   1300000   716.02312      14012.466      535.52773      17181.243    
   1400000   674.72936      12804.54       527.16851      16935.887    
   1500000   733.6672       13313.239      515.88432      16721.465    
   1600000   718.52141      14025.824      528.48638      16485.349    
   1700000   715.23326      14004.594      530.53288      16251.186    
   1800000   647.19917      11991.477      519.44252      16040.431    
   1900000   662.64784      12422.416      526.30505      15820.895    
   2000000   661.53549      13506.555      526.359        15604.234    
   2100000   738.92654      14158.787      527.0856       15389.129    
   2200000   694.08565      14881.582      539.22403      15161.189    
   2300000   747.0445       13645.466      533.76071      14943.298    
   2400000   706.98954      14248.882      524.89032      14737.979    
   2500000   744.17655      14304.159      504.90087      14556.472    
   2600000   693.16061      11938.912      522.26042      14354.954    
   2700000   714.00233      12890.258      534.84777      14141.997    
   2800000   688.61181      13157.627      528.06634      13937.07     
   2900000   689.4414       14358.161      536.49423      13725.933    
   3000000   703.76641      12726.664      546.34925      13508.601    
   3100000   696.72168      13080.756      520.34732      13313.838    
   3200000   692.23012      13097.291      529.93212      13111.851    
   3300000   691.66545      11926.815      517.59495      12919.801    
   3400000   714.17354      14213.068      517.60394      12727.677    
   3500000   692.59328      12418.955      512.14693      12539.315    
   3600000   721.07395      14689.793      513.00628      12349.988    
   3700000   677.96429      14008.101      512.71979      12160.543    
   3800000   730.56914      12998.004      518.84816      11967.046    
   3900000   688.39136      15370.281      542.71705      11760.329    
   4000000   668.97736      12700.772      534.23796      11559.122    
   4100000   674.59396      13200.365      511.22693      11370.724    
   4200000   709.69316      13623.812      548.98006      11163.406    
   4300000   741.45027      12909.984      523.73755      10968.895    
   4400000   703.81775      14073.42       531.03084      10771.21     
   4500000   722.10665      14140.664      523.34699      10577.321    
   4600000   695.00889      13758.194      515.98664      10386.753    
   4700000   662.90911      12476.924      524.58448      10192.466    
   4800000   693.20299      12215.26       535.19069      9994.2389    
   4900000   710.62658      13294.065      523.0042       9801.0076    
   5000000   703.36022      13453.912      530.50959      9605.1524    
   5100000   706.7932       13171.763      518.33671      9413.8388    
   5200000   718.78993      13738.417      516.31672      9223.1601    
   5300000   705.93173      14329.928      517.77657      9031.8838    
   5400000   695.01746      12967.225      535.97802      8834.9517    
   5500000   680.03647      13373.75       530.92766      8639.8483    
   5600000   742.87349      13597.916      525.63423      8446.4765    
   5700000   675.12807      14581.331      515.73405      8255.9693    
   5800000   649.48757      14374.757      513.31658      8066.0065    
   5900000   704.54164      13687.941      532.2425       7871.0655    
   6000000   722.23084      13319.043      538.8204       7674.8305    
   6100000   719.59633      14591.239      525.9535       7481.8474    
   6200000   701.49295      12760.907      531.10717      7287.8255    
   6300000   684.99481      14583.918      532.97936      7093.5972    
   6400000   703.58617      14720.728      515.32391      6903.1912    
   6500000   688.75912      13900.076      507.59857      6714.2632    
   6600000   700.71608      13611.397      512.05308      6524.2075    
   6700000   707.89721      13892.681      533.72853      6330.0892    
   6800000   659.65527      11626.745      548.05455      6133.8649    
   6900000   718.18655      13914.06       507.76329      5944.5443    
   7000000   708.47523      12033.029      521.74984      5752.7433    
   7100000   712.86185      14435.678      538.60717      5558.4961    
   7200000   717.29019      14223.703      520.91407      5366.9397    
   7300000   671.8257       13665.549      515.24064      5176.1538    
   7400000   668.30117      13115.568      527.81817      4983.6538    
   7500000   704.80676      13743.61       525.24925      4791.5437    
   7600000   656.08927      15118.468      524.31673      4599.586     
   7700000   667.45545      14041.453      517.48263      4408.4126    
   7800000   715.9165       13238.032      513.50514      4217.6084    
   7900000   686.35081      13496.607      530.08952      4025.0849    
   8000000   682.13665      14291.614      549.55252      3830.9881    
   8100000   711.82454      13558.035      524.82094      3639.2022    
   8200000   692.64949      14788.258      520.64299      3447.7823    
   8300000   722.27675      12132.326      522.52908      3256.2047    
   8400000   723.21096      13830.795      521.63012      3064.6947    
   8500000   677.49055      14062.638      509.41011      2873.9917    
   8600000   648.69315      14402.708      524.11193      2682.2619    
   8700000   716.78471      13842.332      522.49569      2490.6418    
   8800000   707.25107      13193.198      529.37996      2298.6874    
   8900000   679.12894      14933.52       511.13929      2107.6349    
   9000000   662.63496      13662.494      537.23576      1915.4245    
   9100000   737.10784      14467.01       514.74097      1724.1521    
   9200000   690.95413      12616.345      526.93605      1532.4234    
   9300000   701.23219      14003.915      543.51598      1340.301     
   9400000   669.73511      12628.051      525.27137      1148.7596    
   9500000   673.5009       13566.14       553.17526      956.73732    
   9600000   743.00297      12120.568      549.44494      765.00045    
   9700000   735.28399      13480.814      564.24669      573.31665    
   9800000   669.37329      11561.147      577.75426      381.84331    
   9900000   677.89873      13734.525      568.86469      190.7688     
  10000000   709.2634       12220.638      593.66603      0            
Loop time of 19054.6 on 1 procs for 10000000 steps with 517 atoms

Performance: 45.343 ns/day, 0.529 hours/ns, 524.809 timesteps/s, 271.326 katom-step/s
99.5% CPU use with 1 MPI tasks x 1 OpenMP threads

MPI task timing breakdown:
Section |  min time  |  avg time  |  max time  |%varavg| %total
---------------------------------------------------------------
Pair    | 18769      | 18769      | 18769      |   0.0 | 98.50
Neigh   | 2.8186     | 2.8186     | 2.8186     |   0.0 |  0.01
Comm    | 44.15      | 44.15      | 44.15      |   0.0 |  0.23
Output  | 155.82     | 155.82     | 155.82     |   0.0 |  0.82
Modify  | 66.382     | 66.382     | 66.382     |   0.0 |  0.35
Other   |            | 16.85      |            |       |  0.09

Nlocal:            517 ave         517 max         517 min
Histogram: 1 0 0 0 0 0 0 0 0 0
Nghost:           1466 ave        1466 max        1466 min
Histogram: 1 0 0 0 0 0 0 0 0 0
Neighs:              0 ave           0 max           0 min
Histogram: 1 0 0 0 0 0 0 0 0 0
FullNghs:        18540 ave       18540 max       18540 min
Histogram: 1 0 0 0 0 0 0 0 0 0

Total # of neighbors = 18540
Ave neighs/atom = 35.860735
Neighbor list builds = 3678
Dangerous builds = 0
write_data FINAL_STRUCTURE
System init for write_data ...
Total wall time: 5:17:34
