LAMMPS data file via write_data, version 10 Sep 2025, timestep = 10000000, units = metal

511 atoms
1 atom types

0 21.790885 xlo xhi
0 21.790885 ylo yhi
0 21.790885 zlo zhi

Masses

1 28.085

Atoms # atomic

64 1 1.5409771159969567 1.2657916256397987 1.3470569021165801 0 0 1
2 1 21.761427286054047 2.6865222801137487 2.3759435566681613 -1 0 0
8 1 2.9291727773110323 21.607069577602186 2.6443574261244764 0 -1 0
132 1 5.708642242043068 2.5890775606964898 2.4552103746601297 0 0 0
129 1 6.967984401430748 1.4613461387913833 1.151996688624994 0 0 0
226 1 8.1308451932621 0.04325207210401416 2.473596768747338 0 1 0
257 1 11.19370390719135 2.919963593776138 2.504035348913422 0 0 0
356 1 12.475922480856187 1.3987365116501593 1.1227921196970778 0 1 0
352 1 13.81779357094334 21.562477324547956 2.307825047323258 0 0 0
258 1 17.95000662367158 1.3748371727034288 1.0742210502375873 0 0 0
398 1 16.54778025614694 2.7269141971953643 2.5618575748362873 0 0 0
493 1 19.175437510209047 21.773464737808972 2.4907036875872333 0 0 0
39 1 2.881687726951282 5.32134999254541 2.7272565510025215 0 0 0
1 1 4.212833333542708 4.098414190320502 1.236089419389139 0 0 0
174 1 8.523545656456035 5.609346961662608 2.4951342567317396 0 0 0
157 1 9.751418981010042 4.067743040568203 1.0799593577991597 0 0 1
291 1 14.010233272412565 5.575604345948002 2.47712109257624 0 0 0
385 1 15.046242959697961 3.949761542801491 1.1045579173291298 0 0 0
422 1 19.367069878540153 5.53283283979518 2.448178839171874 0 0 0
40 1 20.669669912361634 4.113965216812687 1.1405432316009483 -1 0 0
199 1 1.7585340436384378 6.93187005101871 1.2799912871523471 0 0 0
37 1 0.34831402578929144 8.4411609439722 2.538684008940163 0 0 0
165 1 5.969810343941118 8.157723297100004 2.3096259014159557 0 0 0
166 1 7.139049524538494 6.732234641661555 0.9850662133500464 0 0 0
319 1 11.27153371711424 8.279869123363136 2.5800567339850495 0 0 1
200 1 12.581385040780525 7.013057448963416 1.0432114861124815 0 0 0
421 1 17.82268780047961 6.653678455946292 1.0993774325420695 0 0 0
420 1 16.38674621011421 8.113576678096079 2.3971617673464487 0 0 0
71 1 3.3947206709474647 10.994709614328416 2.5135319591638354 0 0 0
68 1 1.6912214274951987 12.080590813809904 1.3130306114456913 0 0 0
38 1 4.644531062601289 9.686975827548324 1.133250513688174 0 0 0
189 1 8.511410054332398 11.050783339040223 2.527935598924905 0 0 1
348 1 6.978710536764914 12.362360331091473 1.1002983440889935 0 0 1
169 1 9.974189083564225 9.594532139641997 1.0647191641254923 0 0 0
295 1 15.072596429708916 9.65542316462216 1.2121731268396025 0 0 0
326 1 13.79140474053712 11.074886157023018 2.561239239950974 0 0 0
327 1 12.217670631754567 12.292879367017274 1.1246789024447028 0 0 0
346 1 17.923170906902527 12.314604389901112 1.2206620486433726 0 0 1
423 1 20.463684743163792 9.63313003141452 1.0540401233848236 0 0 0
424 1 19.553499049215432 10.917385626833397 2.6208790162631477 0 0 0
72 1 0.33619226457688817 13.767275408830667 2.620734037838172 0 0 0
228 1 4.1575028217605094 14.976738143904486 1.3337362000283484 0 0 0
231 1 5.539522181214019 13.68007388453188 2.465539457795983 0 0 0
206 1 9.748454619042981 14.747902527826493 1.0753317509913825 0 0 0
359 1 11.045555507645194 13.710976683829806 2.67397506590844 0 0 0
227 1 15.125125951999488 14.939243266340304 1.0659821514549823 0 0 0
449 1 16.49897766563276 13.646657658264761 2.3986731907612704 0 0 0
450 1 20.647620844203466 15.049651135711672 1.1822663232114912 0 0 0
100 1 1.4410276235530812 17.58893979952469 1.2968414933657098 0 0 0
99 1 2.985611634248477 16.327839351617712 2.5820121316163243 0 0 0
233 1 8.271357920360613 15.999374001383424 2.411635108553382 0 0 0
27 1 6.973577256469274 17.55344675576849 1.0837914802199935 0 -1 1
365 1 12.617700698042421 17.73455635497019 1.1598286186400097 0 0 0
198 1 13.916303653507104 16.334845360401882 2.6020110384624604 0 0 0
66 1 17.864224056210876 17.83725166825418 1.317785696573975 -1 0 0
90 1 19.206469167470665 16.36819538200995 2.742770235937173 -1 0 1
391 1 0.07044054627208206 19.05206712583648 2.6392188433087886 1 -1 0
123 1 5.686822452025913 18.82765804013981 2.6069704531488394 0 0 1
135 1 4.242973179595756 20.3332837078313 1.3430747948714403 0 -1 0
261 1 11.098207652933008 19.066187297721466 2.6125848625607695 0 -1 0
217 1 9.774395340481288 20.605077479033746 1.322423346324831 0 0 1
229 1 15.235558407271792 20.387347850190586 0.9429996478070837 0 0 0
486 1 16.492847101391977 19.292544187134535 2.503741018169118 0 0 0
390 1 20.54511224154686 20.430025312079206 1.2134256318900654 0 -1 0
106 1 0.013159220819062852 21.691319083562238 5.214238489798037 0 0 0
12 1 2.5807984438258447 2.724389272239353 5.260839573732925 0 0 0
6 1 4.237030190820666 1.4848023107458894 3.981334247024686 0 0 0
136 1 5.801246903106186 0.02250002326349332 5.023853359136688 0 0 0
237 1 8.560965230128767 2.8035068301255275 5.242678070930846 0 1 0
131 1 9.864578749633315 1.3295470780734826 3.8974076655727736 0 0 0
144 1 11.037140960967703 0.08576601925244588 5.445645722820593 0 0 0
163 1 13.745910180722536 2.497663171688164 5.036123569447665 0 0 0
263 1 15.074209633755041 1.1805307963728384 3.7453355880030377 0 0 0
260 1 16.67294436089032 0.08597261472960425 5.159950809616792 0 0 0
397 1 20.48948794710692 1.4589511665941448 3.9250677152346443 0 0 0
431 1 19.337811959269807 2.994917098155124 5.145215627242367 0 0 0
45 1 1.3748616946870258 4.009648710919372 3.764454579841792 0 0 0
386 1 0.12212339803431854 5.438497411792966 5.308249132517282 1 0 0
130 1 5.6091253344349985 5.197831576741974 5.28529747063745 0 0 0
168 1 7.212252712172241 4.141005825006231 3.810153214130463 0 0 0
301 1 11.23118375480539 5.60937915072036 5.345905580463917 0 0 0
171 1 12.754503727900959 4.201684629835693 3.722620434005194 0 0 0
384 1 17.785178377546448 4.396129652299054 3.9503887326999925 0 0 0
290 1 16.53994873314903 5.655603100088702 5.332167058294025 0 0 0
76 1 3.0389953839992674 8.052971547629426 5.253611967280618 0 0 0
138 1 4.479397789965931 6.727996077745156 3.695423064507931 0 0 0
289 1 8.60264846192559 8.203082729697487 5.151109988789286 0 0 0
162 1 10.046082611587172 6.911426845773792 3.914187761241004 0 0 0
331 1 13.894716683327943 8.231608462311808 5.286663045485051 0 0 0
388 1 15.229455508248211 6.89609434582893 3.9482244699495297 0 0 0
14 1 20.641064695267268 6.8534087138103414 3.8186055386529962 -1 0 0
425 1 19.21286875518394 8.289009411484614 4.994335198010535 0 0 0
79 1 1.9417417533535597 9.731921236290507 3.9274647213464076 0 0 0
42 1 0.3817189576281426 11.132313569060463 5.169756692883376 0 0 0
212 1 5.743270701275268 10.978710208880965 5.316874003191086 0 0 0
91 1 4.444310541629014 12.373814197096218 3.9759647897921813 0 0 1
9 1 7.154156130181514 9.577610875832153 3.7784112863499857 0 0 0
322 1 11.095461879102842 10.995193547946215 5.389241897640178 0 0 0
335 1 9.763699328996756 12.31505965905815 4.133761606507541 0 0 0
417 1 12.536275448932738 9.571044716212029 4.010675133431116 0 0 0
454 1 15.253960527678672 12.355925050029638 3.9690224828829352 0 0 0
429 1 17.860171218435337 9.493399838166116 3.6323658104590852 0 0 0
455 1 16.810514579051425 10.911251125471884 5.102191454174856 0 0 0
41 1 20.865733443741252 12.476352835764024 3.8680821740731313 -1 0 0
78 1 1.6966737197078088 15.083911708949975 3.908182733121762 0 0 0
80 1 3.3269524615309516 14.005626597268673 5.309534892056168 0 0 0
201 1 7.055027397564961 14.819332576794839 3.961668217780093 0 0 0
195 1 8.537045622568826 13.708343906641712 5.416934645314412 0 0 0
324 1 12.604865527128627 14.892139388460846 4.119124764604087 0 0 0
321 1 13.907087107594823 13.566946073986108 5.3900336471812995 0 0 0
452 1 17.72005666186292 14.926464184223189 4.068024289440041 0 0 0
461 1 19.406202108483125 13.75209909494704 5.2133513867427235 0 0 0
67 1 0.47710966352832346 16.44994638708278 5.44857235960502 0 0 0
69 1 4.282956026914117 17.692612967421788 4.104858258032865 0 0 0
73 1 5.714951259993928 16.284728112558856 5.320689455262367 0 0 0
225 1 9.785504607075401 17.553462254943557 3.816471848236156 0 0 0
363 1 11.071784271246152 16.273637914313564 5.220382800427987 0 0 0
354 1 15.271226821246637 17.7753547576877 3.8745547938412424 0 0 0
494 1 16.561771895918397 16.30730552197122 5.2098893629058125 0 0 0
104 1 20.726343564200665 17.625980255375453 4.08767551618978 -1 0 0
448 1 1.4965343141294067 20.33632810272653 3.947887789595499 1 0 0
111 1 2.8059927643205786 19.05141375721963 5.363872492224274 0 0 0
262 1 8.099740512400816 19.08863348702197 5.193275428754896 0 -1 0
160 1 6.911956807740284 20.360035959833162 3.750390229790528 0 -1 1
353 1 12.268124604079183 20.39103776680235 4.126865748803361 0 0 0
366 1 13.796834345981722 18.87257184517603 5.406408478673836 0 0 0
488 1 18.002366059058545 20.475799761984867 3.9731198894158717 0 0 0
108 1 19.16541829149794 19.013912908789393 5.3682851431175616 -1 0 0
15 1 1.2824100259801554 1.4373908573952343 6.459568504081646 0 0 0
44 1 21.74777471273319 2.9556226505434746 7.681309143418195 -1 0 0
5 1 5.622803077884261 2.5425978280432555 7.875580199147321 0 0 0
496 1 4.121172958008447 1.3835707415650245 9.287088580159267 1 1 0
142 1 7.329616937871519 1.281531782774018 6.621670220713927 0 0 0
151 1 8.575413446081171 21.72459591938913 8.0761050498169 0 -1 0
137 1 11.001143769804676 2.7750128329596215 8.065597364862382 0 0 0
361 1 9.675358985691336 1.471883570945201 9.478725899663889 0 1 0
269 1 12.35346852806875 1.610514737002161 6.677796317301042 0 0 0
393 1 13.64257109880856 0.1627925257247964 7.942249710688663 0 0 0
407 1 15.14951304548876 1.510391564334809 9.290864624547977 0 0 0
430 1 18.070134493411466 1.4861913518928742 6.604249475087301 0 0 0
399 1 16.592057346422195 2.805773997697707 7.869831877345526 0 0 0
16 1 19.229272824750346 0.09612410245464426 7.697189814183701 -1 0 0
55 1 2.842247540575631 5.44502785962492 8.013291616399826 0 0 0
105 1 4.187737378280303 3.8356505096374858 6.691496910352108 0 1 0
175 1 8.534510974099545 5.641581743349375 7.704833774499401 0 0 0
172 1 9.96021910386267 4.305944038726961 6.5953470339621285 0 0 0
277 1 12.453521165467594 4.1582240343096 9.271314569840602 0 0 0
427 1 15.133355159731515 3.8937109383296047 6.418973978267751 0 0 0
265 1 13.874621212027694 5.442638862864624 7.79217814776846 0 0 0
298 1 17.84711095195542 4.279304870682882 9.258802868385322 0 0 0
47 1 20.377222805549863 4.364501197456476 6.62721212085848 -1 0 0
43 1 19.200370374601576 5.7417709460560875 8.02248537129181 -1 0 0
48 1 1.5494858971309766 6.809804230225225 6.456401831725339 0 0 0
170 1 0.2254294383153684 8.341780181628891 7.931845437484917 0 0 0
173 1 5.709365691618849 8.426131460351991 8.053696371413679 0 0 0
133 1 7.026207089318843 6.932722597545564 6.637554297954339 0 0 0
182 1 11.296543669082233 8.291903742991426 8.015578418714727 0 0 0
299 1 12.639001311949126 6.98941620040377 6.703856027240026 0 0 0
426 1 17.979318921974304 7.108319278445804 6.555725916527993 0 0 0
292 1 16.52226846673591 8.351264671527744 8.064079176874904 0 0 0
52 1 20.420706564319783 7.119733121183034 9.384995366579911 -1 0 0
46 1 3.0815644308467496 11.018927180567232 8.041489149786704 0 0 0
74 1 1.8535584851694933 12.483134019559175 6.55971283475138 0 0 0
208 1 4.276174129558955 9.653923623731913 6.64689044426126 0 0 0
203 1 8.56139907120883 10.983231055558674 7.990259967873291 0 0 0
240 1 7.088965420016544 12.350552958351022 6.773242127434503 0 0 0
302 1 9.895991837829222 9.46817408222944 6.524259397038056 0 0 0
333 1 12.436052252833681 12.347797595459667 6.730143203332485 0 0 0
305 1 9.785531116200472 12.383603185509532 9.462331013195579 0 0 0
459 1 15.428110514859592 9.665206908947393 6.532195934164947 0 0 0
330 1 14.231749289205734 11.066351331025396 8.12743666706222 0 0 0
467 1 15.363264402950927 12.352258442774476 9.433636504845099 0 0 0
463 1 20.73337789117152 9.67124621648575 6.415634111609981 0 0 0
437 1 19.531852095215562 11.075182649376668 7.793367804892133 0 0 0
239 1 0.38145366809842157 13.749743584318393 7.990466084743037 0 0 0
119 1 1.6620828900430147 15.056453219326512 9.440448778034954 0 0 0
65 1 4.577350286725918 15.152485496392648 7.018316831168889 0 0 0
194 1 5.795879073214426 13.54043030267227 8.471953755065947 0 0 0
197 1 7.108771793888574 15.204407467073965 9.782356486604742 0 0 0
244 1 9.815266692415836 15.114365745860066 6.790239909056333 0 0 0
334 1 11.2522027222046 13.84147832494215 8.18349794961989 0 0 0
328 1 15.37780382526762 14.946668390008977 6.633975314181492 0 0 0
462 1 18.014739054277893 12.288677255980652 6.598660522092202 0 0 0
457 1 16.67846042131014 13.566724727385902 8.050502163136747 0 0 0
456 1 20.7853081245182 15.080137807781428 6.576703049169038 0 0 0
490 1 1.6036456908936985 17.77591122517232 6.877764048671106 1 0 0
202 1 2.8858070619378853 16.411437988020392 8.029980330939402 0 0 0
107 1 4.215557709367349 17.837014874634665 9.358580700301504 0 0 0
232 1 6.993336798051993 17.718158690861088 6.535623751098289 0 0 0
238 1 8.435256634540673 16.50144856401182 8.094930178864074 0 0 0
235 1 9.77916640737683 17.81523663704736 9.438893725785297 0 0 0
360 1 12.507592447072236 17.499057991094784 6.58507595578368 0 0 0
367 1 14.042995653844608 16.33809981287353 8.073742989869254 0 0 0
368 1 15.011390856817766 17.82811749021327 9.351733081117898 0 0 0
489 1 17.879025499102493 17.705933570205183 6.642517890316436 0 0 0
495 1 19.343536800235853 16.57729329519958 8.114374318733683 0 0 0
116 1 20.442629903924082 17.967942825872942 9.31846714468712 -1 0 0
19 1 2.757461294390969 0.15411045859567188 7.954073024168311 0 0 0
501 1 0.24757196055461805 19.176088242488206 7.938373235862247 1 0 0
3 1 5.7169470666389355 18.93418138720719 7.902930258196559 0 -1 0
110 1 4.447948076479096 20.33108842446107 6.501451884589213 0 0 0
139 1 7.088930217667194 20.364807445009614 9.20721396390301 0 -1 0
267 1 9.692679056062659 20.364725790492287 6.512629387039836 0 -1 0
373 1 10.971732234397331 18.96892336473855 7.667838702343779 0 0 0
395 1 15.093002901172508 20.564577010751368 6.4669708860306345 0 -1 0
484 1 16.249151891860873 19.115528108947395 7.969388512550152 0 0 0
418 1 17.81089456633177 20.569642387425063 9.114557988699357 0 -1 0
482 1 20.545520983435864 20.33259158148063 6.521556786641647 0 0 0
394 1 1.7159558077903003 1.4383862872398143 11.859294480997917 1 0 0
20 1 21.77087537124527 0.28464226621299904 10.623923095749428 -1 0 0
101 1 2.8877701985497803 3.040221977102788 10.627575182046995 0 1 0
241 1 5.6827913039878615 21.727164465625684 10.614396541734685 0 0 0
234 1 6.92823810263928 1.5928623799127326 11.88851514638743 0 1 0
13 1 8.191172055496201 3.1017000088254427 10.602860131206613 0 0 0
270 1 11.069448322041985 21.780221979566587 10.53574608721354 0 -1 0
276 1 12.35341914526239 1.4773350852648646 12.034084030873453 0 0 0
275 1 13.823755482956752 2.973826411192277 10.706619748562941 0 0 0
266 1 17.71534346386334 1.4968502526546792 11.886941472243508 0 0 0
492 1 16.459682270267656 21.74639687784679 10.617689687754215 0 0 0
264 1 20.547821450490503 1.6264367831947748 9.157793864702091 0 0 0
98 1 19.208229823990983 2.8403594400647605 10.774161453174873 -1 1 0
22 1 1.3449721423267416 4.20064101454311 9.177591495683817 0 0 0
50 1 0.041031142975431145 5.6397819906200555 10.54632489386039 0 0 0
176 1 5.564932573926151 5.74772111459603 10.720538587011 0 0 0
126 1 4.2157528478884085 4.516375347917764 12.226933415742282 0 1 0
392 1 6.923951418086929 4.351579916775154 9.101326837234515 1 0 0
309 1 11.153264183469993 5.630380176393662 10.455314440586646 0 0 0
159 1 9.833451451073051 4.333538997077639 11.790730170978865 0 0 0
306 1 15.243145230507613 4.158190948383817 12.11399176451798 0 0 0
435 1 16.47151446918798 5.6261527916872645 10.716572336496867 0 0 0
434 1 20.70586217353275 4.037010618615009 12.025811200575133 0 0 0
84 1 1.711093858036119 7.167244649608062 11.821880587274789 0 0 0
204 1 3.3000766682574088 8.463559678791704 10.685277405392426 0 0 0
180 1 4.392985667653374 7.099546759735239 9.316521896235203 0 0 0
145 1 8.37430491841111 8.226020585081002 10.725356141470986 0 0 0
146 1 7.044782289227458 6.976554420606882 12.098802513221589 0 0 0
307 1 9.854818495608008 6.912263464941319 9.372805053299938 0 0 0
396 1 12.480053006526035 7.067052302056007 11.978640070171913 0 0 0
401 1 15.164532226702718 6.901943320878489 9.232793030333411 0 0 0
303 1 13.919442686588413 8.332044612463873 10.798227713003984 0 0 0
18 1 17.816191036638738 6.971130936047746 11.975466695640835 -1 0 0
438 1 19.26019982388644 8.424754412635156 11.038498437818433 0 0 0
54 1 1.6788764474481754 9.717196287811772 9.362653285776997 0 0 0
210 1 0.16713725156261586 11.0270236262451 10.669993284606557 0 0 0
77 1 1.4181164741183914 12.328079554138288 12.030722031961819 0 0 0
75 1 4.359050236118155 12.203031108010997 9.753463678851078 0 0 0
51 1 4.468474319853335 9.409513527534953 12.400302500688225 0 0 0
178 1 5.600943409483809 10.894450613726406 11.004287130623114 0 0 0
207 1 7.161546751715699 9.699136434072068 9.283898636413289 0 0 0
209 1 7.070474683160762 12.29923231164999 12.389919630664908 0 0 0
297 1 12.534152926608552 9.718422055508972 9.456446243752918 0 0 0
278 1 9.48545284832203 9.27829494473689 12.4371626625016 0 0 0
179 1 10.938445127280685 10.785696561128134 10.884433679516837 0 0 0
428 1 15.088935869293206 9.825897875779567 12.15279585633594 0 0 0
296 1 18.0881341458189 9.77189104601248 9.434997300004108 0 0 0
470 1 16.580898157261462 10.995869378747459 10.782366210478227 0 0 0
468 1 17.93044800872939 12.367482888090324 12.171545926320972 0 0 0
432 1 20.789066614611194 9.820429369510467 12.251868584608113 0 0 0
458 1 20.626167608565936 12.397493120064775 9.427480795781808 0 0 0
112 1 2.8640015815869395 13.688555398893142 10.871907958917902 0 0 0
120 1 4.15466818643223 14.868895989740878 12.298982086919617 0 0 0
205 1 8.39001311607386 13.616221436491244 11.02734332556369 0 0 0
491 1 12.64379758972295 15.167085940953063 9.511731250211257 0 0 0
339 1 12.345098896627235 12.067981769476384 12.186862143874599 0 0 0
329 1 9.809335879753238 15.0418662263218 12.187385493748158 0 0 0
341 1 13.83841858343855 13.59396107032173 10.884623333458421 0 0 0
499 1 15.102112580618416 15.059976209078084 12.106197374527781 0 0 0
460 1 17.917520915109204 15.150319144099965 9.486873253171977 0 0 0
469 1 19.31766583896022 13.691611723646858 10.813266955269135 0 0 0
383 1 20.68530077327595 15.185691851984075 11.955280304216968 0 0 0
252 1 1.551440991553461 17.91191638968621 12.267726421917537 0 0 0
87 1 0.15919354698914595 16.75305148056626 10.730486332805755 0 0 0
81 1 5.350145843023136 16.265946236148803 10.837368603661266 0 0 0
242 1 6.967404266003745 17.514709174677794 11.906506394986708 0 0 0
332 1 11.304451351204538 16.456716978358394 10.757253402400359 0 0 0
374 1 12.380182091300416 17.983326070686296 12.13271397337469 0 0 0
362 1 16.48776789964765 16.45832478917439 10.773910132314096 0 0 0
464 1 17.923585542866583 17.926036367599902 12.048775860758298 0 0 0
114 1 1.60153758803049 20.626727168045043 9.356217720214227 0 0 0
109 1 2.8108266666391555 19.279124845570195 10.634656856496113 0 0 0
148 1 4.439093736723083 20.45158554025804 12.006375423222083 0 -1 0
246 1 8.317061159134758 19.09363049694989 10.628031934588872 0 0 0
271 1 9.606439399943786 20.58974306436155 12.148873337000243 0 -1 0
140 1 12.259585888627457 20.430387214102325 8.901962213046447 0 -1 0
364 1 13.609623982758949 19.177577953071527 10.47537586592366 0 0 0
403 1 15.064228135642423 20.43976744630595 12.057886977659754 0 -1 0
497 1 19.11290318332511 19.24147296598045 10.565116713350104 0 0 0
502 1 20.481040504863895 20.65295519806354 11.899895360579313 0 0 0
30 1 0.2290844971908224 2.667455915173653 13.10530580301453 0 0 0
117 1 4.256696623553353 1.3469411386025856 14.700410326053127 0 1 0
158 1 5.538826776552787 2.8234125851346907 13.350613293560011 0 0 0
143 1 9.667535092410311 1.4125032037234877 14.68615222189966 0 0 0
11 1 10.984591229657333 2.949500836955393 13.388971157916737 0 0 0
279 1 15.118455751094693 1.4669991756733853 14.839505673514987 0 0 0
311 1 13.807084135862937 0.0965084987513698 13.43218219968418 0 0 0
413 1 16.355327571158977 2.810359435324276 13.486102002749153 0 0 0
406 1 20.776169137049507 1.4045480720821968 14.55098374284079 0 0 0
405 1 19.30376323882792 0.2560114104769278 13.27345915051264 0 0 0
60 1 1.4901147851975305 4.19661494545481 14.696392234597402 0 0 0
17 1 2.739639478414967 5.67305427860634 13.510006305027428 0 0 0
141 1 8.40470222857458 5.58846599570067 13.52307438938575 0 0 0
56 1 6.931191283401057 4.257859961817547 14.78986128670232 0 0 0
192 1 12.362097870835827 4.243061154117506 14.918405501208847 0 0 0
177 1 13.779073757157645 5.540209179835988 13.380789076530057 0 0 0
439 1 17.814271761219977 4.077417911691316 14.749260117890778 0 0 0
10 1 19.313408756915937 5.364379683468691 13.388600117698436 -1 0 0
445 1 0.3793993699914291 8.350714273663016 13.347272051082152 1 0 0
183 1 4.184129414607376 6.797511489348198 14.839979196559577 0 0 0
184 1 5.8118912936581095 8.142467184236262 13.741344326586475 0 0 0
83 1 7.2687442258507104 9.348309314250816 15.227405657878816 0 0 0
149 1 9.818469077513877 6.9660618975362025 15.238965525711349 0 0 0
300 1 11.135698318566186 8.058052180126467 13.522788294750486 0 0 0
443 1 15.06732398025652 6.797829530319434 14.942730046728276 0 0 0
433 1 16.301699251745752 8.350241664096172 13.625683176078844 0 0 0
21 1 20.536397559659605 7.0205672263362215 14.731210275846056 -1 0 0
53 1 1.456693100756651 9.69839939362197 14.726664050851026 0 0 0
49 1 2.90595330434098 11.072602405786725 13.555909583190891 0 0 0
215 1 4.064301538516856 12.46450713307826 15.020307641034913 0 0 0
216 1 8.369851562519068 10.717360313543168 13.679359478963379 0 0 0
211 1 9.859480714033449 12.226597593019338 14.78506427395705 0 0 0
310 1 12.353034654241533 9.555879885271526 14.90511336455633 0 0 0
342 1 13.610191449286225 10.906610776123522 13.69698933372369 0 0 0
478 1 14.913699508787463 12.33007000211304 14.879669687141359 0 0 0
338 1 18.073793632833784 9.78445299285389 14.824337472347676 0 0 0
471 1 19.475062933403247 11.223753465006268 13.400521185662559 0 0 0
94 1 20.687622593628376 12.306750954819686 14.85635005689884 -1 0 0
86 1 1.394597725769816 14.94639726516287 14.823840404860638 0 0 0
466 1 0.08307414339310377 13.684082434570245 13.480467637633465 1 0 0
214 1 5.590969901064432 13.69071172846279 13.712902026370113 0 0 0
213 1 6.96610954152206 15.053811020163469 14.830344082790587 0 0 0
337 1 11.061072118127123 13.496510029630802 13.41909890195537 0 0 0
381 1 12.407402713621005 15.262001784736272 14.613332030457384 0 0 0
465 1 16.453218957024042 13.604370409428748 13.561673760360641 0 0 0
507 1 17.89828247219854 14.96649856921668 14.787474306053406 0 0 0
82 1 2.91396399054234 16.25180578312931 13.4816077150279 0 0 0
113 1 4.229471404919616 17.684084419639337 14.78361286695351 0 0 0
371 1 8.369880443422606 16.269383292751606 13.378385744853338 0 0 0
247 1 9.555390255019843 17.882222009534214 14.675064909785062 0 0 0
375 1 13.816791196748152 16.591130603974307 13.52672225637384 0 0 0
510 1 15.225726853790057 17.812160418955862 14.886782092976407 0 0 0
336 1 19.26467853408889 16.6246968577717 13.469464131574018 0 0 0
472 1 20.753950001383114 17.956394292479988 14.917058590598662 0 0 0
23 1 2.824162495294264 21.751977604611287 13.280449187954602 0 -1 0
498 1 1.5325891758140249 20.708133237986118 14.8916395631076 1 0 0
124 1 0.22015212618078026 19.33322564546965 13.210399969230773 0 0 0
24 1 5.600490058428767 18.935506230119465 13.364232408997111 0 -1 0
268 1 8.01476374493642 0.051641394675215224 13.358450327359067 0 0 0
150 1 6.921599568956944 20.27831120439752 14.715730887604181 0 -1 0
369 1 11.02700838046533 19.258085106752993 13.54771531772584 0 0 0
372 1 12.376534750958992 20.562197716800988 15.094087352811014 0 0 0
411 1 16.59360205529954 19.123449263340078 13.606184061484969 0 -1 0
400 1 17.98600591635536 20.57978290855661 14.650171954893073 0 -1 0
28 1 1.5810573804892671 1.398538987353463 17.527259817638726 0 0 0
156 1 2.965781203883852 2.677353447713428 16.14346951796875 0 0 0
118 1 0.13835082706175691 0.1161907046279218 16.192477091187364 0 1 0
152 1 5.481403228188815 21.709995789678786 16.05682256657949 0 -1 0
243 1 6.962748968091083 1.1546936713766067 17.468022639388145 0 1 0
285 1 8.30524517468568 2.62707659139986 16.139341600125668 0 0 0
281 1 11.098809393175358 2.795255147054664 18.86150667663836 0 0 0
286 1 12.531743875075806 1.4046431898560066 17.446692647382537 0 0 0
272 1 13.74955478462024 2.8821490653086346 16.28514408951159 0 0 0
410 1 18.006668708152276 1.5631165888661265 17.371232037018377 0 0 0
282 1 16.725537485643734 2.740842397241301 18.920958577903633 0 0 0
414 1 19.322139126447713 2.930260641382132 15.935015191741103 0 0 0
408 1 0.21212103363191837 5.4949667041682995 16.055513119742702 1 0 0
154 1 4.266637969520024 3.9683544817257865 17.515536850685905 0 0 0
294 1 5.64678646694984 5.706264574113976 16.266794911459225 0 0 -1
273 1 9.694901437639937 4.020933094026513 17.555925174672545 0 0 0
315 1 11.17781673137121 5.537065561527172 16.385055004151514 0 0 0
280 1 15.418302703865399 3.9609733593640617 17.509007758514286 0 0 0
404 1 16.58034814916517 5.3279415292101895 16.15618193917394 0 0 0
402 1 20.6381160987558 4.113663725451794 17.4952189491629 0 0 0
58 1 1.4633138125775853 6.692609214551295 17.616635264508023 0 0 0
62 1 2.8084603400386547 8.342851664101337 16.18562313249623 0 0 0
190 1 5.627015127682075 8.020608868694573 18.676168919133396 0 0 0
25 1 7.4848217786065945 7.086498041331657 17.25595721861655 0 0 0
185 1 10.811692012579346 8.184610869416186 18.751878554387478 0 0 0
308 1 12.389301593986913 7.022764757551457 17.714024154354384 0 0 0
304 1 13.813054192570132 8.128257084994653 16.324834946498363 0 0 0
446 1 17.58403409506072 6.94089993265297 17.58168159366165 0 0 0
436 1 19.178563803521982 8.190166893533608 16.294418641097504 0 0 0
85 1 1.3859410559607275 12.185372371964178 17.44013870982458 0 0 0
88 1 0.12366084787467806 10.891375683625135 16.115230669195387 0 0 0
188 1 4.416514553678492 9.754384379089462 17.366554646164012 0 0 0
224 1 5.719150089838499 11.032395461556336 16.10811985248347 0 0 0
218 1 7.018780791502814 12.446096054216396 17.487953562708867 0 0 0
181 1 9.375794018592304 9.019090098130633 16.927299973964274 0 0 0
347 1 10.883764774744284 10.723527726161953 16.211559875807332 0 0 0
344 1 12.368375329874988 12.170922695495937 17.458658236162528 0 0 0
475 1 15.111559707619831 9.600914441706093 17.422186528571974 0 0 0
343 1 16.523035206551455 11.11352878445657 16.269006915016092 0 0 0
440 1 17.815979490363766 12.373553924421541 17.75285479577999 0 0 0
92 1 20.55574504574889 9.485984260416721 17.574740979009675 -1 0 0
255 1 2.746948129561266 13.622141961976975 16.29780879949592 0 0 0
89 1 3.9991707229876847 14.915363405797363 17.64845084962209 0 0 0
223 1 8.544254648747726 13.839555182302258 16.17334274765909 0 0 0
379 1 9.881864535940405 14.94138476816499 17.652194520240958 0 0 0
340 1 13.642672094360114 13.862868943146216 16.162154977155012 0 0 0
349 1 15.221989743252806 14.873922794447996 17.422500366854763 0 0 0
503 1 19.13252889060067 13.514342901243706 16.318523856699546 0 0 0
477 1 20.579894732140275 14.743244388566664 17.62264363419142 0 0 0
128 1 1.5283111395854818 17.73618034963724 17.527898965717338 0 0 0
511 1 0.13727103898548107 16.35465911470551 16.358460504336616 1 0 0
222 1 5.637565090043982 16.32216046653657 16.157389824465707 0 0 0
253 1 7.066534545005635 17.59922755229059 17.516047929672737 0 0 0
376 1 10.93223839558981 16.361405215950963 16.095107615968992 0 0 0
249 1 12.482409764295369 17.616700330449167 17.469144726282973 0 0 0
476 1 16.506377920995323 16.29206707770245 16.18738874734247 0 0 0
509 1 18.015637066904883 17.78740875778495 17.298876596648824 0 0 0
115 1 2.927744607886316 19.118685011210466 16.135633093432535 0 0 0
250 1 4.277801746270785 20.294811716209974 17.533783608666614 0 0 0
248 1 8.310072086847484 19.034070620967892 16.391340070056277 0 0 0
147 1 11.030813671853952 0.140524360075071 16.22239034049357 0 0 0
245 1 9.815359391943487 20.39580605845128 17.496387971800008 0 0 0
287 1 15.478524373547469 20.61338731186445 17.441375753123648 0 -1 0
505 1 13.793812731216393 19.219539508321798 16.369412884244028 0 0 0
274 1 16.554331260589155 0.2590855532079455 16.126814563604352 0 0 0
500 1 19.268571018743256 19.265040087994734 16.19042758502102 0 0 0
122 1 20.438407724965323 20.55921873529321 17.669819995903175 -1 0 0
236 1 0.2147954944168574 0.08365419861198443 21.77314080860653 0 1 -1
7 1 2.73465668525124 2.7253690902678076 21.703269386170945 0 0 -1
26 1 0.20952695950042297 2.7370864457007156 18.820297894491546 0 0 0
31 1 2.758954800944511 21.69390171726006 18.916477992099825 0 -1 0
29 1 5.476588280262342 2.478383063907823 18.85594007457028 0 0 0
32 1 4.17849047384891 1.134083562554362 20.45214963353781 0 0 0
259 1 5.475661032674631 21.722832623688323 0.04034167814726075 0 -1 0
134 1 8.193216425630842 2.854247731596147 21.615614157371457 0 0 -1
283 1 8.409592195858874 21.652957170019988 18.98588996489453 0 -1 0
153 1 9.633745664562598 1.567478978575583 20.09960372699287 0 0 0
419 1 13.668839273036276 2.7471242539779515 21.643415184280364 0 0 -1
387 1 14.98103864977515 1.585662721154724 20.286332613091155 0 0 -1
380 1 13.954841488620023 21.64275027384919 18.851976551740933 0 0 0
481 1 16.533280951956797 0.08540689374271139 21.50038832988371 0 1 -1
412 1 19.47249277169013 2.8644704015627056 21.6265389660921 0 0 0
97 1 20.786209481215305 1.5635566222893638 20.278467160582288 -1 1 -1