LAMMPS (10 Sep 2025)
OMP_NUM_THREADS environment is not set. Defaulting to 1 thread.
  using 1 OpenMP thread(s) per MPI task
Loaded 1 plugins from C:\Users\lmike\AppData\Local\LAMMPS 64-bit 10Sep2025 with GUI\plugins
# LAMMPS input generated from LammpsInputFile with pymatgen v2025.10.7

# STYLES
units metal
atom_style atomic

# SET UP CALCULATION
read_data starting_config.dat
Reading data file ...
  orthogonal box = (0 0 0) to (21.790885 21.790885 21.790885)
  1 by 1 by 1 MPI processor grid
  reading atoms ...
  511 atoms
  read_data CPU = 0.005 seconds
pair_style sw
pair_coeff * * Si.sw Si
Reading sw potential file Si.sw with DATE: 2007-06-11
velocity all create 1100 5972560

# CALCULATION PARAMETERS
fix f1 all nvt temp 1100.0 1100.0 $(100.0*dt)
fix f1 all nvt temp 1100.0 1100.0 0.10000000000000000555
thermo 100000
thermo_style custom step temp press spcpu cpuremain

# RUN CALC AND WRITE OUTPUTS
dump d1 all custom 100 state_dump id type x y z vx vy vz
run 10000000
Neighbor list info ...
  update: every = 1 steps, delay = 0 steps, check = yes
  max neighbors/atom: 2000, page size: 100000
  master list distance cutoff = 5.77118
  ghost atom cutoff = 5.77118
  binsize = 2.88559, bins = 8 8 8
  1 neighbor lists, perpetual/occasional/extra = 1 0 0
  (1) pair sw, perpetual
      attributes: full, newton on
      pair build: full/bin/atomonly
      stencil: full/bin/3d
      bin: standard
Per MPI rank memory allocation (min/avg/max) = 3.118 | 3.118 | 3.118 Mbytes
   Step          Temp          Press          S/CPU         CPULeft    
         0   1100          -1733.9847      0              0            
    100000   1140.1811     -1100.9217      412.65917      23990.743    
    200000   1041.9321     -1282.4139      406.39181      23931.536    
    300000   1081.8101     -1008.0899      459.44258      22829.071    
    400000   1183.8705     -1282.0928      529.51003      21477.782    
    500000   1073.3094     -1517.8954      513.45952      20703.633    
    600000   1080.0592     -1638.02        514.04164      20119.159    
    700000   1085.4387     -2313.7479      509.21516      19670.594    
    800000   1038.6685     -1544.8167      502.07361      19317.197    
    900000   1096.7031     -890.44777      518.59728      18933.906    
   1000000   1149.7889     -1284.3972      515.64843      18598.633    
   1100000   1141.7839     -1593.8322      501.72474      18332.602    
   1200000   1106.4255     -1419.1204      499.4852       18084.244    
   1300000   1116.5337     -778.58468      511.27035      17812.411    
   1400000   1028.5641     -897.01053      515.69051      17541.17     
   1500000   1124.9653     -978.88283      507.04147      17298.984    
   1600000   1088.1225     -1352.7017      523.38359      17030.088    
   1700000   1050.2973     -1196.2303      509.5822       16795.614    
   1800000   1071.7319     -2059.7597      518.25917      16550.421    
   1900000   1087.1815     -395.52299      515.87235      16314.532    
   2000000   1094.2315     -1628.294       509.75907      16092.147    
   2100000   1075.8539     -2263.6865      533.29566      15839.688    
   2200000   1167.6387     -1015.5336      520.30311      15609.734    
   2300000   1132.5476     -1399.312       525.9103       15376.204    
   2400000   1097.1408     -1782.9409      522.35361      15150.389    
   2500000   1114.1068     -384.75303      512.40724      14938.472    
   2600000   1121.3198     -1370.9238      520.58895      14719.114    
   2700000   1118.3878     -1386.354       512.51364      14509.96     
   2800000   1099.6157     -1831.49        518.27388      14296.232    
   2900000   1180.7518     -1259.9001      506.78131      14094.649    
   3000000   1094.6945     -1604.3541      532.18291      13871.374    
   3100000   1063.4058     -1088.0334      515.43261      13663.973    
   3200000   1119.6741     -929.59326      511.51717      13460.565    
   3300000   1043.7774     -920.4794       519.61226      13251.452    
   3400000   1045.3946     -1829.4861      521.59292      13041.901    
   3500000   1092.7391     -1539.4197      522.21636      12832.943    
   3600000   1129.9418     -1301.8656      511.67891      12631.967    
   3700000   1134.6551     -1353.0496      524.16414      12423.364    
   3800000   1133.8184     -1157.6681      515.52071      12220.918    
   3900000   1115.3098     -1454.2711      538.92543      12005.73     
   4000000   1066.0926     -1229.5918      514.33507      11805.33     
   4100000   1103.0559     -730.52611      498.15515      11614.31     
   4200000   1098.921      -991.56408      522.12005      11410.102    
   4300000   1091.7451     -288.51604      517.37004      11208.815    
   4400000   1026.6709     -1565.0813      515.16428      11008.946    
   4500000   1126.283      -1767.6633      530.65944      10802.404    
   4600000   1078.3597     -1293.8851      515.30929      10603.239    
   4700000   1154.3333      85.554419      527.57139      10399.205    
   4800000   1094.3534     -1509.5182      511.07011      10202.405    
   4900000   1082.0524     -1747.5556      513.70416      10004.607    
   5000000   1113.2485     -1254.0128      518.4903       9805.1367    
   5100000   1038.4746     -1605.656       518.64294      9605.8712    
   5200000   1107.0114     -960.41133      532.265        9402.299     
   5300000   1096.5165     -723.29689      524.59858      9201.7539    
   5400000   1115.2334     -983.47109      523.94206      9001.7798    
   5500000   1108.0588     -1063.5654      522.33178      8802.6185    
   5600000   1186.3349     -727.42095      513.34086      8606.3672    
   5700000   1107.2388     -2050.2571      519.45682      8408.4365    
   5800000   1142.8218     -1587.4763      525.7633       8209.0207    
   5900000   1081.3108     -600.37383      519.09149      8011.6161    
   6000000   1101.3747     -1099.3973      524.00472      7813.1659    
   6100000   1009.4942     -1475.7617      532.32568      7613.0582    
   6200000   1086.4666     -1838.2431      505.55801      7419.4418    
   6300000   1114.0297     -671.01134      517.04168      7223.1124    
   6400000   1144.6241     -1929.4493      529.38726      7024.3373    
   6500000   1130.5512     -1006.397       517.91456      6828.1192    
   6600000   1075.468       28.836008      514.49723      6632.6568    
   6700000   1043.5366     -2170.6443      524.32541      6435.4327    
   6800000   1061.994      -1753.8816      506.36736      6241.5829    
   6900000   1045.9736     -978.58686      524.76152      6044.5176    
   7000000   1099.3063     -2091.0503      521.43517      5848.1592    
   7100000   1167.794      -514.30154      537.44314      5649.5966    
   7200000   1017.8467     -883.36411      565.44044      5447.7983    
   7300000   1070.6969     -549.57434      633.25777      5239.6784    
   7400000   1154.0589     -1423.1071      639.9534       5032.3349    
   7500000   1080.4973     -1311.7772      654.79543      4825.1729    
   7600000   1110.5293     -1577.5095      660.41695      4619.0331    
   7700000   1111.1674     -1567.5039      690.38645      4412.3512    
   7800000   1090.3613     -1587.4794      692.02665      4207.1581    
   7900000   1063.1055     -980.99728      691.55381      4003.5276    
   8000000   1089.2113     -1739.359       670.07781      3802.5315    
   8100000   1133.8427     -624.64839      669.18764      3602.86      
   8200000   1142.9848     -395.46326      693.90739      3403.2451    
   8300000   1083.5506     -1507.4578      678.35926      3205.6443    
   8400000   1059.2827     -1553.8407      674.36964      3009.4045    
   8500000   1105.2876     -1172.4098      699.35259      2813.3582    
   8600000   1076.4411     -1431.0935      681.81688      2619.1444    
   8700000   1127.0886     -1135.6819      694.52066      2425.6228    
   8800000   1122.8141     -1055.9417      683.20675      2233.5522    
   8900000   1065.2847     -1376.755       697.92919      2042.127     
   9000000   1099.9347     -1134.1642      691.75218      1851.9138    
   9100000   1146.0383     -1050.8721      702.40988      1662.487     
   9200000   1133.6967     -611.82486      700.81846      1474.1114    
   9300000   1180.2969     -404.46492      713.44865      1286.5282    
   9400000   1089.4353     -1226.1139      718.58302      1099.8899    
   9500000   1126.168      -1420.4175      730.80752      914.1286     
   9600000   1095.0901     -1495.1684      777.70107      729.04281    
   9700000   1136.5439      146.50644      811.17609      544.95789    
   9800000   1057.9981     -1781.0911      808.37213      362.12267    
   9900000   1129.6262     -719.62366      830.77128      180.44829    
  10000000   1073.7719     -625.36206      874.44112      0            
Loop time of 17978.7 on 1 procs for 10000000 steps with 511 atoms

Performance: 48.057 ns/day, 0.499 hours/ns, 556.212 timesteps/s, 284.225 katom-step/s
99.5% CPU use with 1 MPI tasks x 1 OpenMP threads

MPI task timing breakdown:
Section |  min time  |  avg time  |  max time  |%varavg| %total
---------------------------------------------------------------
Pair    | 17700      | 17700      | 17700      |   0.0 | 98.45
Neigh   | 6.5473     | 6.5473     | 6.5473     |   0.0 |  0.04
Comm    | 43.684     | 43.684     | 43.684     |   0.0 |  0.24
Output  | 146.79     | 146.79     | 146.79     |   0.0 |  0.82
Modify  | 65.653     | 65.653     | 65.653     |   0.0 |  0.37
Other   |            | 16.55      |            |       |  0.09

Nlocal:            511 ave         511 max         511 min
Histogram: 1 0 0 0 0 0 0 0 0 0
Nghost:           1425 ave        1425 max        1425 min
Histogram: 1 0 0 0 0 0 0 0 0 0
Neighs:              0 ave           0 max           0 min
Histogram: 1 0 0 0 0 0 0 0 0 0
FullNghs:        18152 ave       18152 max       18152 min
Histogram: 1 0 0 0 0 0 0 0 0 0

Total # of neighbors = 18152
Ave neighs/atom = 35.522505
Neighbor list builds = 8615
Dangerous builds = 0
write_data FINAL_STRUCTURE
System init for write_data ...
Total wall time: 4:59:38
