LAMMPS data file via write_data, version 10 Sep 2025, timestep = 10000000, units = metal

507 atoms
1 atom types

0 21.781566 xlo xhi
0 21.781566 ylo yhi
0 21.781566 zlo zhi

Masses

1 28.085

Atoms # atomic

6 1 21.76435522440539 2.67996630843584 2.4097115015981414 -1 0 0
3 1 2.6450550788954668 0.24992622612120485 2.5244169931229434 0 0 0
130 1 6.58831352817135 1.3525271167793447 1.3373816108478749 0 0 0
153 1 8.039883620283966 2.6876982201150743 0.11198378506524054 0 0 1
132 1 7.964582589901509 21.75536813344213 2.562983325717665 0 -1 0
258 1 12.325366576585097 1.3229314332047315 1.5069780838869664 0 0 0
253 1 10.871371598724508 2.7824712221027723 2.6955183738075434 0 0 0
386 1 17.392682327046217 1.5475869017825052 1.2761923596195714 0 0 0
381 1 16.29018715350708 2.786474097819411 2.8284410522749557 0 0 0
406 1 0.3177183150993681 0.5824581996691004 0.6674232920401654 1 0 1
385 1 19.144062354085683 2.60021451295233 0.20867058514506098 0 0 0
387 1 18.91708404177339 21.772830017127095 2.662612094935601 0 -1 0
32 1 3.1273303717871057 5.182726592681642 2.237319839073666 0 0 0
128 1 5.374683033416531 3.2642485090616877 2.344946636558204 0 0 0
159 1 5.061431048952203 5.178356518853526 0.6059607553572119 0 0 0
129 1 8.171864448529375 5.404414179762612 2.808929151642173 0 0 0
126 1 9.427767313269527 3.9626815009400986 1.4977661833924005 0 0 0
287 1 10.803136735770662 5.266064877467603 0.1261912630890336 0 0 0
252 1 14.957581477354074 3.828919287144806 1.3600932503409924 0 0 0
291 1 13.509261046358274 5.145925173715074 2.6019468400478107 0 0 0
4 1 20.55255394635766 4.161229627831891 1.145387224689311 -1 0 0
380 1 19.153604620684764 5.61526869760747 2.4447985337850615 0 0 0
36 1 1.320002738779197 6.4298750632498605 0.8396679835244254 0 0 0
414 1 0.19471605330108588 7.916970101839169 2.51977759309627 1 0 0
35 1 2.8260572373276913 8.01255270527414 0.11087605204373219 0 0 0
162 1 5.4022351857649875 8.31819882079775 2.766076060014756 0 0 0
163 1 6.605194816658217 6.668323485725523 1.4283080953796867 0 0 0
161 1 8.051804764452145 8.032140560042237 0.004830135200421637 0 0 0
285 1 10.747335993647262 8.273827058640052 2.813917200598424 0 0 0
290 1 12.098071408197049 6.681003505527611 1.5871654787702683 0 0 0
418 1 17.835335865718882 6.677630980892075 0.9908318034083996 0 0 0
413 1 16.334335180969 8.067326742308714 2.4139538508655756 0 0 0
417 1 19.38299427873161 8.090329125877458 21.652831592354453 0 0 -1
69 1 2.58667498399714 11.056373055539959 2.606850752622498 0 0 0
68 1 1.3905794146432773 12.403966727057284 1.0459904598681553 0 0 0
31 1 3.944807544057932 9.634168621044664 1.3194280628707347 0 0 0
191 1 5.4939382908019185 10.82688983934911 21.68280970755504 0 0 -1
195 1 8.134365313763825 10.986459448809958 2.812228081027427 0 0 0
194 1 6.721482233863381 12.129818140239676 1.4755918616338632 0 0 0
157 1 9.52117035348334 9.56431488953574 1.325925828330575 0 0 0
322 1 12.123081927749064 12.257894686439146 1.530849895427071 0 0 0
284 1 14.871543219484689 9.439981668696362 1.2475116475464412 0 0 0
323 1 13.544872628700206 10.875764497243866 2.613889461309929 0 0 0
450 1 17.711867168647125 12.200222911314828 1.4127374687191696 0 0 0
447 1 16.404957476534598 10.696040628303498 0.01808854019069628 0 0 0
412 1 20.64697312443859 9.434711953089826 1.1136036320484466 0 0 0
451 1 19.428086199932217 10.788534679438769 2.543656818722466 0 0 0
63 1 0.11944329920432127 13.710176886909744 2.724973879148679 0 0 0
67 1 2.837410536606408 13.680280018652804 21.62738964026765 0 0 -1
62 1 4.321100055697376 14.863067740315302 1.201582115389606 0 0 0
189 1 5.476252421568507 13.500614277025406 2.751828996284468 0 0 0
188 1 9.458119985637115 15.001260165114823 1.5502074341685184 0 0 0
317 1 10.958438079521942 13.83923204088957 3.0273218426069843 0 0 0
316 1 14.960614380830688 14.810232580564765 1.5926856581328785 0 0 0
321 1 13.607075444924345 13.45954888659693 0.12475402490642296 0 0 0
445 1 16.465565034065634 13.724787497544291 2.8403694076873602 0 0 0
444 1 20.59438792938368 14.909026552119519 1.238587222668325 0 0 0
449 1 19.222099930401015 13.459293596722219 0.016521142021485247 0 0 0
100 1 1.2914204216099288 17.590675902169437 1.3612349883228942 0 0 0
101 1 2.6679228896481515 16.10089344861979 2.5795068131626993 0 0 0
120 1 5.630274253326286 16.063764381319924 21.579456556025722 0 0 0
223 1 6.620194028159575 17.786723670835492 1.2436720720320957 0 0 0
227 1 7.852377087490674 16.339333556825107 2.6835199574071065 0 0 0
354 1 12.05746122811776 17.818660121846417 1.393570485143002 0 0 0
351 1 10.545777160354055 16.541689845340663 0.19881710416815798 0 0 0
355 1 13.472789395856118 16.414967860717915 2.742079436462767 0 0 0
482 1 17.72191865499826 17.69683868135082 1.2234024395343983 0 0 0
483 1 19.035117457663144 16.28782843870323 2.46347984850661 0 0 0
94 1 2.880782458563697 19.006913275403647 0.2245520179700606 0 0 0
95 1 0.0399522424178862 19.207221141775495 2.5956527563803475 0 0 0
7 1 4.304282434683301 20.794025092685512 1.241806143450818 0 -1 0
221 1 5.455581074860427 19.271627598748353 2.6236403924867036 0 0 0
226 1 8.134041290033334 19.22993216780569 0.02242956239459712 0 0 0
220 1 9.552797213492068 20.357783330142777 1.474313524247677 0 0 0
349 1 10.80333691465051 19.141552076403258 2.9689666422756407 0 0 0
259 1 13.603475763979732 21.628304436747136 2.7907868911184184 0 -1 0
348 1 14.917903681063507 20.324338896333444 1.4271814692950997 0 0 0
353 1 13.590826882712808 18.921525858265394 0.020371502726643197 0 0 0
477 1 16.18890549873637 18.826077918569545 2.7311392723072903 0 0 0
476 1 20.51252934910566 20.768357420842047 1.2932580011292405 0 0 0
481 1 19.060506567537097 19.292922584234706 0.07232494966635628 0 0 0
12 1 2.774705217095095 2.7102362234051736 5.3733390105336225 0 0 0
2 1 4.188501928926398 1.8230981294404578 3.9507999006020227 0 0 0
136 1 5.400924118580392 0.178254826663828 5.297283746780115 0 0 0
138 1 8.036354029679716 2.6925366498447456 5.552155103095287 0 0 0
127 1 9.339655177735231 1.4766895283137633 3.9111330766557435 0 0 0
254 1 14.823489706682034 1.2802970051794973 4.211252677427197 0 0 0
265 1 13.340023963980457 2.7761108299701807 5.427248848751469 0 0 0
382 1 20.454649386051052 1.327966654451765 3.954703606939705 0 0 0
393 1 19.22834842357191 2.788464061436566 5.30126681152179 0 0 0
10 1 0.12099568079537783 0.04801232585989071 5.31117745731767 0 0 0
37 1 1.4948448766544145 3.9246213753360384 3.806276848772725 0 0 0
167 1 5.457736355080358 5.5527061290558635 5.555806024983917 0 0 0
1 1 6.572036722041722 4.107400106324988 4.146659691604367 0 0 0
295 1 10.889720123348692 5.370192656681719 5.387007839155909 0 0 0
256 1 12.085159485562015 4.05569215056371 4.0847098564341815 0 0 0
384 1 17.972753625309764 4.205056798167795 3.949559758150307 0 0 0
423 1 16.341236536911776 5.2830467750443795 5.2596914692297485 0 0 0
41 1 0.019889503925982332 5.500954304165193 5.157374884581985 0 0 0
43 1 2.8001942548151817 8.16558338766353 5.492854907132753 0 0 0
34 1 1.3271859424696775 9.371396545133171 4.050665156900882 0 0 0
160 1 4.057077540520019 6.6080359270551465 4.088805984901761 0 0 0
170 1 8.019056126625477 8.360464117610992 5.422747260955796 0 0 0
158 1 9.528462880074786 7.008523401600117 4.13063852072036 0 0 0
286 1 15.101674734353981 6.611313040885386 3.809756025151271 0 0 0
297 1 13.479520455208954 7.890887793570216 5.235858818535136 0 0 0
419 1 20.327189112129435 6.827704739545526 3.8331821082759148 0 0 0
425 1 19.253728408307186 8.203835841029855 5.498359269836525 0 0 0
73 1 0.13820433663578532 10.861854358511987 5.437114576491061 0 0 0
199 1 5.414410220053281 10.986573266675146 5.655228749055962 0 0 0
64 1 4.027167689544327 12.249216841512043 4.03424750230339 0 0 0
169 1 6.793472225296461 9.707014000267796 4.068940497094117 0 0 0
288 1 12.305127725733817 9.531514489046211 4.101835171517878 0 0 0
190 1 9.565399879635814 12.193075128495236 4.309967988758764 0 0 0
327 1 11.003094169358238 10.714834217115863 5.595988685970345 0 0 0
318 1 15.124841675887504 12.160328493644316 3.899370889007529 0 0 0
416 1 17.777176820172 9.29981530843255 3.9246703233259272 0 0 0
455 1 16.481444950879027 10.817242152134266 5.4580272110548025 0 0 0
446 1 20.566373390965197 12.246931875453301 4.105915210985564 0 0 0
66 1 1.5679035959898757 14.978050778514767 4.268942973518354 0 0 0
75 1 2.7566728607520483 13.559597967714522 5.658475775210131 0 0 0
192 1 6.7036802999768454 14.845889473745524 4.301716489537196 0 0 0
201 1 8.22268740198376 13.835017289010256 5.720807568115394 0 0 0
320 1 12.505159502009134 15.039694852393218 4.349892143844741 0 0 0
329 1 13.752648705534721 13.441126568239763 5.628718735197091 0 0 0
448 1 17.90849473941936 15.10268782174527 4.109061995086443 0 0 0
457 1 19.269616915133568 13.538461578001264 5.405600609534792 0 0 0
96 1 4.118748294273648 17.667638157017578 3.8624711662465314 0 0 0
231 1 5.509587451275133 16.38984627699942 5.343181965672069 0 0 0
222 1 9.388359219851463 17.60803070186907 4.209742708825406 0 0 0
359 1 10.92362422242907 16.401537557354807 5.52807277279716 0 0 0
350 1 14.860976645045236 17.60068523683546 4.1017669993490555 0 0 0
487 1 16.41044688149941 16.403097787699966 5.456355129179576 0 0 0
105 1 21.740227740696735 16.374545087621893 5.381452094654689 -1 0 0
478 1 20.494543994946348 17.60500766620085 3.8776187293382947 0 0 0
107 1 2.810461980501909 18.9872174752112 5.180658947844553 0 0 0
98 1 1.5426707201387466 20.490967463546646 3.8844229898900093 0 0 0
224 1 6.756502057343457 20.455324726156896 4.1555504072576674 0 0 0
233 1 8.283875112453956 19.14794451783182 5.625582304754353 0 0 0
263 1 10.684242514290588 0.11089357928359748 5.357364297336426 0 0 0
352 1 12.083501950146767 20.47646648223021 4.320287392925484 0 0 0
361 1 13.787615072209716 19.04652387939156 5.491776962330334 0 0 0
391 1 16.319024298570778 0.054461290756471215 5.425373068322859 0 0 0
480 1 17.648160072894512 20.336856054379172 4.008364789696671 0 0 0
489 1 19.21538084413878 19.112796346454157 5.29435018482244 0 0 0
13 1 1.3556832338617208 1.5180994764393374 6.623052506404795 0 0 0
134 1 5.206271453376444 2.8791445652719005 8.205759404970621 0 0 0
9 1 3.828878766765198 1.3844377620427175 9.239176448344326 0 0 0
139 1 6.618070341536396 1.475899545374523 6.896520707790174 0 0 0
261 1 10.898267007914331 2.84783085345015 8.211444152468971 0 0 0
266 1 12.13605495313178 1.3169318845727342 6.953653151723277 0 0 0
267 1 13.771407743161637 21.70503493763813 8.216583071494298 0 -1 0
394 1 17.869453279793614 1.412562197160191 6.625754285360041 0 0 0
389 1 16.507399067157387 2.7311585217288155 8.023468597594357 0 0 0
11 1 0.08224565978729714 2.876206361275448 8.091777931038768 0 0 0
45 1 2.666218280712472 5.472525997043782 7.993556332427587 0 0 0
8 1 4.090405173707153 4.2018721620502255 6.652597746388133 0 0 0
171 1 8.138375856529317 5.281252802648495 8.264391068242672 0 0 0
133 1 9.53073458606749 4.120643874671953 6.813619410124033 0 0 0
260 1 14.912675847911956 4.042771904820632 6.691051124930461 0 0 0
299 1 13.740467523138312 5.492277087104785 7.964287476460929 0 0 0
388 1 20.452133275140177 4.2496643479011595 6.588110126555956 0 0 0
427 1 18.967182119981107 5.4717060284992876 8.091058993195034 0 0 0
44 1 1.344158019959284 6.701977353482417 6.5227065318246 0 0 0
165 1 5.53584027619682 7.9909964416338495 8.32244635188755 0 0 0
38 1 4.076398314546707 9.399255686717748 6.956713225801628 0 0 0
131 1 6.875754080612443 6.698404639197315 6.843954274243943 0 0 0
293 1 11.021284651978519 8.009863909420606 7.982557552325005 0 0 0
298 1 12.21752699168814 6.578212435830062 6.627420147577699 0 0 0
421 1 16.192992514130815 8.31018328475672 8.005673832001817 0 0 0
426 1 17.673648229879817 6.993977181607153 6.7385543545019635 0 0 0
39 1 0.1267002505250982 8.306675540288493 8.001627264576374 0 0 0
77 1 2.749035535285084 10.674704839931534 8.516299333376736 0 0 0
76 1 1.3125979872103297 12.244820772713355 7.130127761077651 0 0 0
203 1 8.24317998454409 10.872631607923747 8.258553061456034 0 0 0
202 1 7.067337785900071 12.17271155973178 6.854519095071489 0 0 0
168 1 6.773329773794 9.610310380984396 9.49201457708358 0 0 0
164 1 9.470764453647003 9.39274933807366 6.826813068970086 0 0 0
330 1 12.24684425984964 12.243801540113722 7.034341300286 0 0 0
198 1 9.368622893784362 12.347182522406179 9.60074414445977 0 0 0
292 1 14.918724435823417 9.401638754933108 6.608443927629469 0 0 0
331 1 13.61277942283485 10.84214592469287 8.117203018416985 0 0 0
458 1 17.758548907461726 12.292966246662889 6.716384504551941 0 0 0
420 1 20.46622725440043 9.710395168735168 6.912866187280561 0 0 0
459 1 19.02676290550368 11.106651705318805 8.363514717435503 0 0 0
70 1 4.295897973448339 14.920966488225645 6.865803977300293 0 0 0
197 1 5.515495325144272 13.570459321288823 8.161314295893314 0 0 0
196 1 9.526274390480033 15.150228098997946 7.064607811741567 0 0 0
325 1 10.792135218199046 13.604992380192607 8.271958523490788 0 0 0
324 1 15.324825998816781 14.890141608794833 6.908643763192228 0 0 0
453 1 16.50035450147447 13.587518554198716 8.37061592456057 0 0 0
71 1 21.69370030117778 13.677013731214359 8.372986998157257 -1 0 0
452 1 20.56595073219339 15.018418686689333 6.93924554391388 0 0 0
108 1 1.3068236720873925 17.68804490752369 6.600722875262835 0 0 0
109 1 2.8517777179515864 16.304821260885017 7.924787249040677 0 0 0
234 1 6.857343924613111 17.748812573704235 6.823621383693814 0 0 0
235 1 8.303615446320636 16.615188012812386 8.12350171282721 0 0 0
362 1 12.302417154190577 17.87449980427645 6.749433931552026 0 0 0
363 1 13.56621866760841 16.321753638728143 8.053171493525824 0 0 0
490 1 18.093225885557818 17.73378777112239 6.716067410061153 0 0 0
491 1 19.173577977013615 16.34940573154484 8.27016386949769 0 0 0
14 1 2.5766503336608038 0.08530720191005468 7.962369952616653 0 0 0
103 1 0.026565257084836702 19.084778985972914 8.051972592115236 0 0 0
102 1 3.978260932454126 20.500854735547463 6.748825450843653 0 0 0
229 1 5.355067991541176 19.020630945378773 7.995833104232256 0 0 0
140 1 8.120900709264216 0.09550264618886217 8.071718727131088 0 0 0
228 1 9.719609234604086 20.33685894522467 6.883246121748247 0 0 0
357 1 11.002989128270523 19.108507803492937 8.251701979628928 0 0 0
356 1 15.139445672497583 20.304139115087406 6.909798116388101 0 0 0
485 1 16.633204569038504 18.85857707054699 8.261254685565616 0 0 0
395 1 19.122400089709583 21.707394861885778 7.841613619142487 0 -1 0
484 1 20.541467837341674 20.43059752862278 6.612814457337749 0 0 0
15 1 2.6296767592765593 2.888413374833855 10.660445632927134 0 0 0
21 1 1.4955818953352389 1.3857095556592642 12.090175359823382 0 0 0
144 1 5.211368342411434 21.64713724463164 10.50930437993554 0 -1 0
146 1 7.771998364523337 2.4531935681265065 11.089559186242726 0 0 0
147 1 6.355638901917947 0.950730687869825 12.510065478990324 0 0 0
135 1 9.392767770707616 1.5650053065137086 9.529510234936026 0 0 0
274 1 12.213120851383243 1.4688316143169502 12.143617982732405 0 0 0
271 1 10.823073917205814 0.29771164752673585 10.799548510141499 0 0 0
262 1 15.006534019491566 1.3988156301505248 9.56179815218504 0 0 0
273 1 13.479159424715952 2.77393510874549 10.599298782456877 0 0 0
399 1 16.36770826102766 21.774091563655638 10.900319819466928 0 -1 0
390 1 20.46907563044405 1.4211061481732266 9.523902757161844 0 0 0
401 1 19.05128833755396 2.743306265017037 10.795383353180355 0 0 0
20 1 1.161929036235448 4.3867336678004225 9.40533041705008 0 0 0
49 1 21.679932379988188 5.763360970451281 10.8488825465494 -1 0 0
175 1 5.4172534817067355 5.453664480236443 11.17060182903588 0 0 0
53 1 4.163273398093738 3.982402462521773 12.383882642264318 0 0 0
137 1 6.690521292826376 4.069394036498485 9.612568954500686 0 0 0
264 1 12.244986999337833 4.2911422467587235 9.38926902733936 0 0 0
303 1 10.887517585991896 5.225449736557821 11.066440587239637 0 0 0
141 1 9.436946926702198 3.6961919236209435 12.322443387755097 0 0 0
268 1 14.809335871165953 4.051182101582356 11.955580578544499 0 0 0
392 1 17.666904356681613 4.105182619413803 9.481449153257321 0 0 0
431 1 16.21597521405241 5.6364939729902845 10.827571015435984 0 0 0
396 1 20.5416472767335 4.001773634474959 12.08181169955551 0 0 0
51 1 2.7109658418084646 7.950798452746801 11.146388094959965 0 0 0
52 1 1.2298681875320523 6.724841646212223 12.594354021351426 0 0 0
40 1 4.0035882134568155 6.654715496252186 9.64054541108647 0 0 0
46 1 4.05164666098925 9.332696941808711 12.52841036326069 0 0 0
177 1 8.40836802788153 8.254694871756906 10.81693590839256 0 0 0
166 1 9.673611003478925 6.568573386250804 9.593083611798006 0 0 0
306 1 12.121666379385742 6.789514930265283 12.32386129866302 0 0 0
294 1 14.840196713492631 7.05597410210482 9.40204494444796 0 0 0
305 1 13.375473736287601 8.299737336489766 10.74745893223978 0 0 0
434 1 17.839613392693575 6.921717232204039 12.132873079994592 0 0 0
422 1 20.453676058124547 6.950467318888346 9.405207322955905 0 0 0
433 1 19.11508751020691 8.265762001804596 10.866716534142663 0 0 0
42 1 1.2666336707101467 9.356086784684244 9.813594343747596 0 0 0
81 1 0.00654175080322693 11.094067117011978 10.928200589063206 0 0 0
84 1 1.4153377338672688 12.11570011076326 12.361987446170504 0 0 0
72 1 4.123503722140381 12.250546931614714 9.796460643188206 0 0 0
207 1 5.506173559168884 10.947827209216017 11.136644874074712 0 0 0
210 1 6.854834978211769 12.294333950552339 12.531990813826356 0 0 0
335 1 10.885967983508312 11.015666676003107 10.874975206681038 0 0 0
296 1 12.082191227524808 9.683922798879621 9.420988125099992 0 0 0
172 1 9.667665419388019 9.468205326640021 12.38607383155525 0 0 0
338 1 12.290419666419602 12.173229880963817 12.211324810920736 0 0 0
326 1 14.8747346532151 12.38047821848069 9.450416502087648 0 0 0
300 1 14.808317315821212 9.71307543604974 12.11750372043526 0 0 0
424 1 17.515102807704288 9.585483368688054 9.661202460463373 0 0 0
463 1 16.13152567462589 11.143709278829968 10.997577499422675 0 0 0
466 1 17.642830624662626 12.289280439198624 12.377476886851424 0 0 0
428 1 20.456047260687047 9.491970622428953 12.070983392580464 0 0 0
74 1 1.5094813898508148 15.004078485218933 9.39875235736647 0 0 0
83 1 2.6827886578293683 13.734965662569511 10.896148203311135 0 0 0
78 1 4.036306889336018 15.064315727287873 12.250728967291444 0 0 0
200 1 6.946141884742279 15.132552391640067 9.423834428840975 0 0 0
209 1 8.020803374362899 13.814367953797964 11.060430614323646 0 0 0
328 1 12.147139440176796 15.081929104151738 9.523093716683599 0 0 0
204 1 9.536017490244154 15.039559438932073 12.278789956058963 0 0 0
337 1 13.554881403177497 13.83080053141597 10.801394227726533 0 0 0
456 1 17.78379626109406 15.076157278629983 9.661291658767917 0 0 0
454 1 20.422894503183098 12.357377673927958 9.782291899009996 0 0 0
465 1 19.08694726610641 13.68562714904499 11.058802444965053 0 0 0
460 1 20.50359508454905 14.998022971907156 12.206973714415556 0 0 0
116 1 1.4593067257685792 17.892521252783098 12.321824562807587 0 0 0
113 1 0.10497201804452917 16.50750396320345 11.009753720334057 0 0 0
104 1 4.111637357286295 17.726781884353837 9.43057538760811 0 0 0
239 1 5.364596359678787 16.339308411602026 10.935301627693311 0 0 0
242 1 6.847388587761093 17.720943891997123 12.137676992502213 0 0 0
230 1 9.511797781753884 17.980076623896643 9.524089246812759 0 0 0
367 1 10.710454342682487 16.574492273155457 10.974649762976245 0 0 0
370 1 12.212227790043755 17.98121061013882 12.289609109229254 0 0 0
358 1 15.05360835090678 17.716631063976756 9.6266276381772 0 0 0
495 1 16.150899066400882 16.364756057917692 11.073355386563462 0 0 0
498 1 17.759991818016587 17.554286742377965 12.09360873017768 0 0 0
486 1 20.68455829595695 17.832785711668404 9.57375555216093 0 0 0
106 1 1.3171954158552237 20.40529150060328 9.390090583200285 0 0 0
115 1 2.6098058395684807 19.019355645443504 10.73873509239828 0 0 0
110 1 4.1835436573650675 20.206907617042535 12.279032920119384 0 0 0
232 1 6.865074514658795 20.37376680300832 9.39687020302397 0 0 0
241 1 8.29989283591909 19.3503609170532 10.805036782819405 0 0 0
360 1 12.371678093143846 20.635810890864956 9.682850444390327 0 0 0
369 1 13.758171331441844 19.097271881689526 10.949216008128056 0 0 0
364 1 15.13628559409592 20.55560614684301 12.40385312682392 0 0 0
488 1 17.865529862898654 20.42357443515093 9.48390560662117 0 0 0
18 1 0.04134204289409354 21.760496470304705 10.7939026333915 0 -1 0
497 1 19.110830282263063 19.05791219623763 10.843146080637931 0 0 0
16 1 0.18859535793630755 2.6789179680999835 13.482329593501758 0 0 0
152 1 3.9707415323018282 1.1585786931465598 15.034865857859492 0 0 0
142 1 5.389012101720503 2.6668983100870185 13.882738720167657 0 0 0
148 1 7.985762000124458 21.69695688442329 13.982155048524737 0 -1 0
143 1 9.375377415013281 1.2734703269767744 15.200622192650936 0 0 0
269 1 10.812216919005676 2.467091874137556 13.755284586895927 0 0 0
270 1 15.109597018747268 1.3384238911987976 14.970099709339863 0 0 0
275 1 13.554566260896284 0.17059687303124704 13.444522902182431 0 0 0
402 1 17.68489658556643 1.2738746218428987 12.239006940602824 0 0 0
397 1 16.295925597360547 2.858904137288957 13.550147935892252 0 0 0
398 1 20.48612383823585 1.3524410528663322 14.974361603436515 0 0 0
403 1 19.24926672017733 0.008709301791354224 13.653235569757825 0 0 0
19 1 1.459846164771059 4.004023688028773 15.027578269758742 0 0 0
48 1 2.7537662980949285 5.402270798312786 13.60418960542502 0 0 0
179 1 8.24144508000946 5.34484365598425 13.72380809674489 0 0 0
145 1 6.764726490246747 4.094069358789008 15.174543410870479 0 0 0
272 1 12.179850512971429 3.9405234134163023 15.15192438314864 0 0 0
307 1 13.50251766647372 5.363545069805051 13.593154786359337 0 0 0
400 1 17.847808442581524 4.065191430088513 15.002799238664654 0 0 0
435 1 19.14383264012607 5.312714628815459 13.450875296309931 0 0 0
47 1 21.640129852169498 8.222608670107586 13.741804141322383 -1 0 0
173 1 5.486454227357399 8.083696554953331 13.836500172547964 0 0 0
59 1 4.237195059909946 6.646266724774788 15.0559892053662 0 0 0
178 1 6.933126100592973 6.962029065653781 12.272989883499482 0 0 0
174 1 9.52641330539236 6.75140150488705 15.167476225551562 0 0 0
301 1 10.884816156664588 8.091773910507815 13.874717830649939 0 0 0
302 1 14.954309394061477 6.679221627993326 14.946636954791748 0 0 0
429 1 16.30911694009774 8.149617213172741 13.383106460384287 0 0 0
430 1 20.390469778605866 6.590154105576785 14.81789259991563 0 0 0
50 1 1.3080760931509539 9.4405262381979 15.097335531573938 0 0 0
85 1 2.648933543606448 10.847636237510104 13.846146755152677 0 0 0
80 1 4.091870333931523 12.318885579025006 15.05395938291002 0 0 0
176 1 7.043253459781164 9.673581025545205 15.018097828398687 0 0 0
211 1 8.366901149903532 10.874037290628339 13.592458881128763 0 0 0
206 1 9.684482360763482 12.308546599082144 15.013632366382758 0 0 0
304 1 12.25928853708212 9.389703017713503 15.026514594864668 0 0 0
339 1 13.448169921527183 10.946062753167535 13.585200669361194 0 0 0
334 1 14.968879540178332 12.388136167020123 14.886268832520633 0 0 0
432 1 17.672180040147115 9.35871430484638 14.947297948683481 0 0 0
467 1 18.981356298636644 10.741382085781229 13.502535182376468 0 0 0
462 1 20.427262269238405 12.088210188562174 14.902620796570057 0 0 0
82 1 1.4336152851519912 14.865119819117199 14.910239892265547 0 0 0
79 1 0.005033557716878532 13.527249343518243 13.500508777634447 0 0 0
205 1 5.515856030802429 13.767628070217594 13.701814009655395 0 0 0
208 1 6.915822970737176 15.044805908372302 14.952155065415626 0 0 0
333 1 10.927768878434831 13.598716071234394 13.57313116229695 0 0 0
336 1 12.406847482993676 14.87022683167156 14.909174442694173 0 0 0
332 1 14.872876032906445 15.012547809486774 12.248211660552917 0 0 0
461 1 16.314392626617337 13.690526004448369 13.618265513021239 0 0 0
464 1 17.84705312389174 14.725700903474975 15.004487720474444 0 0 0
117 1 2.6402661172936828 16.37166430583427 13.621636708553586 0 0 0
112 1 4.11094999000546 17.630709211130434 14.846285196905164 0 0 0
243 1 8.116815943443658 16.28803483704197 13.532388138230159 0 0 0
238 1 9.596234855042379 17.739581955576543 14.933681337469793 0 0 0
366 1 15.13988912235039 17.485587061847593 14.64070599794063 0 0 0
371 1 13.464408213967708 16.305317369163372 13.472885113146475 0 0 0
494 1 20.666778034276934 17.653433831850254 15.077631475352476 0 0 0
499 1 19.001411358208546 16.219256141975794 13.729057308945665 0 0 0
22 1 2.6929265083686587 21.72141785410162 13.524487574806042 0 -1 0
114 1 1.3494522340221289 20.50095834492689 14.960344581940305 0 0 0
111 1 21.702730191480246 19.20117563043093 13.556790719783066 -1 0 0
237 1 5.568611046378832 19.004407077653397 13.682339767502508 0 0 0
240 1 6.800263074160886 20.073663171035736 15.247700004581619 0 0 0
236 1 9.466232944726261 20.794017689080984 12.496154726648205 0 0 0
365 1 10.781784126213726 19.35845878145311 13.735674485960317 0 0 0
368 1 12.293168662025776 20.46686298149612 15.04315238014455 0 0 0
493 1 16.52012463194129 18.962402079614964 13.385886227769447 0 0 0
496 1 17.99961703135717 20.332003266537225 14.888879451409284 0 0 0
492 1 20.402462343535813 20.56199989706606 12.21862267689738 0 0 0
29 1 1.5107866267783596 1.4654067750933488 18.14190507973032 0 0 0
26 1 0.2461395636533257 0.1102219110378964 16.411810459222917 0 0 0
17 1 2.6909086840157297 2.65203277884266 16.541192830210345 0 0 0
156 1 6.629708063886109 1.187355735086439 17.68282838266104 0 0 0
154 1 7.970525420351252 2.8077853766625123 16.44813254104999 0 0 0
282 1 12.17588017556996 1.3990375688187517 17.415311642151487 0 0 0
279 1 10.945316827589252 21.745523615017156 16.294394475156974 0 -1 0
281 1 13.596181072127338 2.5984222260036995 16.190469760423245 0 0 0
410 1 17.818617665963867 1.3652922209490925 17.74715467634645 0 0 0
409 1 19.06696526697922 2.4815177334472107 16.31725010072522 0 0 0
57 1 21.72674859887159 5.112985841416153 16.4453242261135 -1 0 0
183 1 5.251531360384712 5.286974322945781 16.72189501388657 0 0 0
28 1 3.8932946835236324 3.8244232048641407 18.08606181969614 0 0 0
149 1 9.50205782934969 3.843876719260451 17.91462604881803 0 0 0
311 1 10.830812427122396 5.2803426568016345 16.581823877246556 0 0 0
276 1 14.918637875458955 3.8727100506916603 17.539513659133323 0 0 0
439 1 16.36045738367713 5.380023955823814 16.27371020821257 0 0 0
404 1 20.37046732151023 3.827311439253755 17.823369228063335 0 0 0
55 1 1.176307318450611 6.610783372645347 17.81900808300295 0 0 0
60 1 2.746830681033368 7.895443552553822 16.513062988187066 0 0 0
186 1 6.70708410995058 6.600093739002198 17.921982363537158 0 0 0
185 1 8.058870602793954 7.998676142546506 16.401649901954407 0 0 0
314 1 12.176355252974508 6.600650526787328 17.902933217117614 0 0 0
313 1 13.75633365092947 7.920719464870427 16.297228491698064 0 0 0
442 1 17.603909682003138 6.505481396448599 17.70878930441937 0 0 0
441 1 18.976530820221083 7.926496864472526 16.225933360104715 0 0 0
92 1 1.3289622199301463 12.219978615620112 17.626048317991486 0 0 0
89 1 21.6935883334275 10.815304876301584 16.477967938132515 -1 0 0
54 1 4.158201236829097 9.422523057193 17.630027367402032 0 0 0
215 1 5.5982818213012955 11.013676196088895 16.450085392757412 0 0 0
218 1 6.966815640540856 12.256830731759184 17.851157779858234 0 0 0
180 1 9.414628431737794 9.428525384443248 17.81481331174343 0 0 0
343 1 10.90358781937568 10.928623041746217 16.49227010510275 0 0 0
346 1 12.314195483426712 12.475927003817285 17.842781084587095 0 0 0
308 1 14.97150044106152 9.53305316571323 17.647298260216694 0 0 0
471 1 16.171809425065284 10.815066500063311 16.11297213412108 0 0 0
474 1 17.659308693043297 12.15763832500678 17.68777375946468 0 0 0
436 1 20.136529539665172 9.428566470082718 17.720372523624647 0 0 0
91 1 2.7633834181470873 13.616498114233437 16.434136082994765 0 0 0
86 1 4.071760592144335 14.913329080611945 17.57279755215683 0 0 0
217 1 8.24760204826687 13.706039049957917 16.61575878105641 0 0 0
212 1 9.69679952174898 15.045767747252238 17.893784694719784 0 0 0
340 1 15.037168566833893 15.02946325740799 17.9329174292788 0 0 0
345 1 13.768552931663232 13.672504430771603 16.294895819820663 0 0 0
473 1 19.236676006525943 13.277679478436427 16.386153125630553 0 0 0
468 1 20.605117429489695 14.923782421429918 17.64758832358861 0 0 0
124 1 1.5980817270724206 17.960999406569574 17.793451217248407 0 0 0
121 1 0.31503271815356726 16.464520534643935 16.477943258305405 0 0 0
247 1 5.455533545114002 16.3632161579949 16.228211820988893 0 0 0
250 1 6.958318428383025 17.607191200158674 17.628370075851716 0 0 0
375 1 10.960631587697483 16.249604661413073 16.1631301554711 0 0 0
378 1 12.407048231174759 17.386803208633143 17.585485033267034 0 0 0
503 1 16.373395445289017 16.152617702249177 16.3315226614246 0 0 0
506 1 17.61894803949583 17.727010765549647 17.64600349756099 0 0 0
123 1 2.8435064512545445 19.22903523717742 16.159522844584465 0 0 0
155 1 5.163842341318585 21.539872271018186 16.506464572952144 0 -1 0
118 1 3.76525593464246 20.40086709774649 18.01935934645492 0 0 0
249 1 8.423140740115478 18.968290277396868 16.413254195955112 0 0 0
244 1 9.78900321090874 20.255029583701003 17.641221068778265 0 0 0
377 1 13.740792757483282 18.876976480207173 16.15807069745062 0 0 0
372 1 15.060752211283091 20.26743681127917 17.280440264398393 0 0 0
407 1 16.506764300608797 21.722112701554913 16.088284631228955 0 -1 0
505 1 19.26217591610778 18.96014762121903 16.499291412265674 0 0 0
500 1 20.544489296127534 20.460710538279464 17.973299409920845 0 0 0
5 1 21.720321619285823 3.055793722142563 19.36937255324353 -1 0 -1
30 1 2.8774053351237323 0.2546620877586137 19.790542952837153 0 0 0
23 1 5.296497495605128 2.339805874223305 19.362669854276675 0 0 0