LAMMPS (10 Sep 2025)
OMP_NUM_THREADS environment is not set. Defaulting to 1 thread.
  using 1 OpenMP thread(s) per MPI task
Loaded 1 plugins from C:\Users\lmike\AppData\Local\LAMMPS 64-bit 10Sep2025 with GUI\plugins
# LAMMPS input generated from LammpsInputFile with pymatgen v2025.10.7

# STYLES
units metal
atom_style atomic

# SET UP CALCULATION
read_data starting_config.dat
Reading data file ...
  orthogonal box = (0 0 0) to (21.781566 21.781566 21.781566)
  1 by 1 by 1 MPI processor grid
  reading atoms ...
  507 atoms
  read_data CPU = 0.005 seconds
pair_style sw
pair_coeff * * Si.sw Si
Reading sw potential file Si.sw with DATE: 2007-06-11
velocity all create 1000 4581364

# CALCULATION PARAMETERS
fix f1 all nvt temp 1000.0 1000.0 $(100.0*dt)
fix f1 all nvt temp 1000.0 1000.0 0.10000000000000000555
thermo 100000
thermo_style custom step temp press spcpu cpuremain

# RUN CALC AND WRITE OUTPUTS
dump d1 all custom 100 state_dump id type x y z vx vy vz
run 10000000
Neighbor list info ...
  update: every = 1 steps, delay = 0 steps, check = yes
  max neighbors/atom: 2000, page size: 100000
  master list distance cutoff = 5.77118
  ghost atom cutoff = 5.77118
  binsize = 2.88559, bins = 8 8 8
  1 neighbor lists, perpetual/occasional/extra = 1 0 0
  (1) pair sw, perpetual
      attributes: full, newton on
      pair build: full/bin/atomonly
      stencil: full/bin/3d
      bin: standard
Per MPI rank memory allocation (min/avg/max) = 3.117 | 3.117 | 3.117 Mbytes
   Step          Temp          Press          S/CPU         CPULeft    
         0   1000          -1070.3126      0              0            
    100000   991.74552     -7550.156       401.27657      24671.264    
    200000   967.28636     -10878.238      429.83204      23610.831    
    300000   1026.8589     -5816.1417      493.0965       22137.138    
    400000   1063.9917     -5656.2752      526.36661      20991.25     
    500000   1012.9243     -6355.2059      546.09805      20097.301    
    600000   987.13799     -5987.3193      537.5231       19486.062    
    700000   1011.4319     -8501.2301      536.76445      18999.803    
    800000   994.97061     -7323.3718      539.93812      18575.939    
    900000   1056.6819     -7555.634       539.89607      18205.257    
   1000000   1062.9615     -6751.9128      541.14702      17867.813    
   1100000   1036.4432     -7008.9536      540.57911      17559.695    
   1200000   986.7483      -6250.5827      540.64061      17271.944    
   1300000   977.49541     -6885.6063      537.18773      17007.963    
   1400000   1024.2911     -5542.1118      545.31982      16738.048    
   1500000   952.4188      -7239.0913      537.16225      16495.451    
   1600000   906.73116     -9078.8966      546.32192      16243.522    
   1700000   1077.9006     -6946.6646      538.40233      16012.843    
   1800000   1010.4419     -8137.102       530.17173      15800.293    
   1900000   983.43282     -7316.3555      538.03423      15578.512    
   2000000   928.35172     -8059.5132      532.98757      15367.362    
   2100000   988.22252     -7179.4912      565.96744      15117.324    
   2200000   1027.6528     -6550.8387      547.46771      14895.122    
   2300000   986.65158     -7164.3383      546.99818      14676.884    
   2400000   1012.0048     -7416.8105      557.73876      14450.449    
   2500000   1001.0356     -7979.1288      540.59107      14244.847    
   2600000   940.49597     -8221.4414      542.51397      14038.965    
   2700000   960.25415     -7714.2069      545.14641      13832.273    
   2800000   1086.3577     -6284.8845      540.27407      13631.497    
   2900000   1088.3753     -7220.3461      553.39558      13421.057    
   3000000   1025.0596     -7493.81        563.12628      13205.314    
   3100000   983.82059     -7481.3226      554.29841      12998.328    
   3200000   882.1003      -8682.0957      552.08712      12794.538    
   3300000   970.37311     -8669.1741      547.38964      12595.278    
   3400000   1036.8522     -7746.2037      544.38759      12398.949    
   3500000   986.27199     -8033.1098      535.3842       12209.078    
   3600000   1012.5178     -7732.5735      549.22197      12011.013    
   3700000   986.53213     -7573.7426      546.73735      11815.221    
   3800000   968.85814     -8655.8045      540.19267      11623.722    
   3900000   1027.2542     -8251.1796      552.68245      11426.008    
   4000000   1042.6524     -7360.0345      552.69426      11229.127    
   4100000   988.94142     -7761.8422      534.92674      11041.672    
   4200000   1053.5602     -7225.9221      534.75889      10854.322    
   4300000   1014.3909     -7663.0028      536.16303      10666.339    
   4400000   981.30952     -7153.7182      547.09976      10473.678    
   4500000   981.69066     -7735.9858      546.41479      10281.736    
   4600000   983.55286     -8816.3583      544.2486       10091.038    
   4700000   1005.4258     -8089.101       548.19632      9899.1435    
   4800000   1053.8663     -7624.3209      545.64669      9708.5674    
   4900000   909.60399     -7986.208       539.89817      9520.3206    
   5000000   996.21068     -6680.2935      534.00405      9334.2392    
   5100000   945.92279     -8158.9879      541.86743      9145.5004    
   5200000   1020.5115     -7726.9499      537.68851      8958.2468    
   5300000   993.65096     -7821.8455      540.40908      8770.211     
   5400000   957.64712     -7893.2247      534.30204      8584.0877    
   5500000   998.53801     -7521.4528      543.23702      8395.408     
   5600000   1000.8537     -7090.7835      561.31158      8202.2351    
   5700000   940.13079     -7646.7765      534.73478      8016.2689    
   5800000   1036.1854     -7142.4969      542.37583      7828.359     
   5900000   995.49427     -7728.5913      540.49262      7641.0153    
   6000000   1015.3546     -7108.9975      530.89995      7455.9778    
   6100000   1026.7812     -6669.8137      557.47235      7265.0913    
   6200000   1014.1335     -8153.4248      556.14617      7074.838     
   6300000   1045.6227     -7139.9871      536.59022      6888.7649    
   6400000   988.47975     -7286.895       541.76633      6701.6813    
   6500000   1022.7005     -7193.317       540.65863      6514.8783    
   6600000   1035.8974     -7475.6979      543.47229      6327.6378    
   6700000   967.04475     -7104.7976      531.38197      6142.5561    
   6800000   967.09619     -7531.7575      544.2669       5955.2864    
   6900000   993.9876      -6929.1359      551.44566      5767.0446    
   7000000   993.50285     -7844.0318      550.70422      5579.1046    
   7100000   1007.4817     -7932.7665      542.22614      5392.5033    
   7200000   959.31071     -8204.1033      537.1626       5206.6385    
   7300000   1024.0071     -8420.1735      553.03182      5018.7898    
   7400000   1008.465      -7341.1832      545.8702       4831.9645    
   7500000   1030.5767     -6570.2856      508.0597       4649.7805    
   7600000   1004.2375     -8209.2949      543.77282      4463.129     
   7700000   1020.4132     -8464.7972      558.47136      4275.1032    
   7800000   963.07905     -8234.8572      553.22403      4087.7863    
   7900000   1021.9115     -6789.3547      556.2428       3900.3747    
   8000000   969.62233     -8173.4146      541.71373      3714.3594    
   8100000   1038.0548     -7813.9117      530.91353      3529.2599    
   8200000   991.88708     -7808.2406      543.19339      3343.1463    
   8300000   942.14462     -7952.8499      544.74276      3156.9741    
   8400000   1052.5851     -6906.0026      538.3319       2971.2801    
   8500000   1054.9478     -7333.629       543.60171      2785.2668    
   8600000   1037.4495     -6709.8835      555.11216      2598.6804    
   8700000   1020.2052     -7516.3359      548.12995      2412.585     
   8800000   956.55386     -7376.8148      545.36423      2226.6988    
   8900000   934.77601     -8405.4388      538.3909       2041.1629    
   9000000   1017.3427     -6869.657       555.60356      1854.9831    
   9100000   966.20442     -8146.8869      539.22915      1669.48      
   9200000   1018.2086     -8061.0186      536.60785      1484.0568    
   9300000   991.46814     -7775.4759      535.65984      1298.6384    
   9400000   1016.2775     -7853.1495      543.64384      1113.0181    
   9500000   980.62918     -7631.4085      607.6235       926.41362    
   9600000   984.94694     -8231.6322      639.82275      739.923      
   9700000   1013.2869     -7267.3055      738.12022      553.41128    
   9800000   958.98078     -7673.2318      784.71989      367.77684    
   9900000   1057.6214     -7592.2067      782.18338      183.32235    
  10000000   972.26418     -8723.1851      782.87896      0            
Loop time of 18276.6 on 1 procs for 10000000 steps with 507 atoms

Performance: 47.273 ns/day, 0.508 hours/ns, 547.146 timesteps/s, 277.403 katom-step/s
99.6% CPU use with 1 MPI tasks x 1 OpenMP threads

MPI task timing breakdown:
Section |  min time  |  avg time  |  max time  |%varavg| %total
---------------------------------------------------------------
Pair    | 17996      | 17996      | 17996      |   0.0 | 98.46
Neigh   | 3.8987     | 3.8987     | 3.8987     |   0.0 |  0.02
Comm    | 44.059     | 44.059     | 44.059     |   0.0 |  0.24
Output  | 147.35     | 147.35     | 147.35     |   0.0 |  0.81
Modify  | 67.941     | 67.941     | 67.941     |   0.0 |  0.37
Other   |            | 17.31      |            |       |  0.09

Nlocal:            507 ave         507 max         507 min
Histogram: 1 0 0 0 0 0 0 0 0 0
Nghost:           1412 ave        1412 max        1412 min
Histogram: 1 0 0 0 0 0 0 0 0 0
Neighs:              0 ave           0 max           0 min
Histogram: 1 0 0 0 0 0 0 0 0 0
FullNghs:        17856 ave       17856 max       17856 min
Histogram: 1 0 0 0 0 0 0 0 0 0

Total # of neighbors = 17856
Ave neighs/atom = 35.218935
Neighbor list builds = 4974
Dangerous builds = 0
write_data FINAL_STRUCTURE
System init for write_data ...
Total wall time: 5:04:36
