LAMMPS data file via write_data, version 10 Sep 2025, timestep = 10000000, units = metal

507 atoms
1 atom types

0 21.790885 xlo xhi
0 21.790885 ylo yhi
0 21.790885 zlo zhi

Masses

1 28.085

Atoms # atomic

6 1 1.479803385977629 1.9510821635839088 1.689652409450922 0 0 0
7 1 2.852087649943994 0.21197049022780648 2.793682962010029 0 0 0
3 1 0.40388305846623845 0.2586124175461464 0.32213097662815027 0 0 0
129 1 5.042511762151052 2.8383916156720193 2.211231716649423 0 0 0
5 1 3.1279574784485313 3.1710482676057445 0.33158027413666213 0 0 0
131 1 6.86935864592543 1.422368218968343 1.319843308559265 0 0 0
132 1 8.084769663787998 0.12152206018691913 2.8158294768309275 0 0 0
253 1 10.792134205744638 2.8676227540199153 2.9794529301498853 0 0 0
258 1 12.245762941801361 1.7040126843795578 1.2824063406656732 0 0 0
259 1 13.55795094079265 0.2421369775473856 2.725925334518658 0 0 0
257 1 13.771977121550599 2.8858743562038116 21.704203206919928 0 0 -1
386 1 17.834002313555057 1.3027149109185983 1.356515491076084 0 0 0
381 1 16.585429094020906 2.6948487910708145 2.686093734726987 0 0 0
387 1 19.24393260362068 21.789213576396843 2.9452435757596325 0 -1 0
385 1 19.420287327082583 2.655533795620759 0.2109507446314334 0 0 0
33 1 0.3133780706479846 5.905024128959829 0.26200387788903173 0 0 0
1 1 5.183708848077877 5.067031615033948 0.42524381996173677 0 0 0
163 1 7.912782568005967 5.511950255879835 2.742156237876117 0 0 0
126 1 9.540600765985637 4.25780451507644 1.538192725571741 0 0 0
252 1 15.116859031656697 4.203168211030684 1.2964236223689518 0 0 0
291 1 13.711641525679477 5.623251462046903 2.6238703793368376 0 0 0
380 1 20.717941870521102 4.20685021286219 1.4009931992610791 0 0 0
419 1 19.262085145214876 5.437238272342946 2.6773640346404863 0 0 0
56 1 2.2253784949503204 8.000361423717466 0.03828537854578085 0 0 1
36 1 0.3280824705175949 8.201292755680589 1.9990267972346663 0 0 0
31 1 4.984252436912001 7.828901902309445 2.979735239608388 0 0 0
162 1 6.526669084775517 6.811122676533 1.4873333245558367 0 0 0
285 1 10.90396855497183 8.405654296084446 2.87688970562217 0 0 0
290 1 12.144224575728034 6.948232147552748 1.3117367736604826 0 0 0
157 1 9.50317509933495 9.384961953875019 1.2752223413284287 0 0 0
418 1 17.97177901706219 6.642163535722263 1.0737047337495709 0 0 0
413 1 16.55456448701248 8.110537619677025 2.4559122850476673 0 0 0
417 1 18.92911428444321 8.381535458684814 21.58211727816603 0 0 -1
69 1 2.4766730499678133 10.828530304190618 3.0421742736735773 0 0 0
68 1 1.5402403950122199 12.263020334635026 1.2700603241631996 0 0 0
35 1 3.607451617948202 9.245668089748351 1.6393567451301072 0 0 0
191 1 5.242766123374064 10.760452820448226 0.21565055095003424 0 0 0
195 1 7.981964178574198 10.649151219108255 2.7734349112796113 0 0 0
194 1 6.938347903858177 12.275867516106597 1.2996146951323386 0 0 0
322 1 12.333916484705144 11.987723988560544 1.4920973531029553 0 0 0
319 1 10.82952767099739 10.711900583982068 0.059828846306679395 0 0 0
284 1 15.03353475396762 9.570780505005914 1.2107639513890966 0 0 0
323 1 13.732632014292504 10.58819880879395 2.809301282452844 0 0 0
450 1 17.803940806210136 12.070822132020172 1.5802365987126972 0 0 0
447 1 16.342229318878807 11.188550317263344 0.019559952817278514 0 0 0
412 1 20.37521749404864 9.50164853499484 1.182813081670052 0 0 0
451 1 19.15176877671402 10.784972003628102 2.7347604702580295 0 0 0
65 1 21.474902596643116 10.985086652061304 0.08154339806311128 -1 0 0
67 1 2.7558876874206915 13.497641791709055 21.471480953913822 0 0 -1
62 1 4.130706703270377 14.886855318551545 1.1880992144904037 0 0 0
189 1 5.467847110351419 13.533244219239103 2.8350866167266315 0 0 0
193 1 8.296941421169427 13.549525410245272 0.02582159012916913 0 0 0
188 1 9.500337420154903 14.95409376845128 1.4284629320748965 0 0 0
317 1 10.755033831597009 13.3433096056511 2.6806382167127767 0 0 0
316 1 14.841239733295753 15.149601097039303 1.363061229275531 0 0 0
321 1 13.482104783557824 13.627688892120165 21.77923495941221 0 0 -1
445 1 16.339744957816393 13.741198710255944 2.5988790788515104 0 0 0
63 1 0.06537482851057916 13.453641656765274 2.586748305728949 0 0 0
444 1 20.43010381295783 14.886254147756745 1.2890833111013207 0 0 0
100 1 1.5169962805787873 17.581587575523283 1.0044941043417126 0 0 0
101 1 2.893623882991435 16.252728224344878 2.7181287289197416 0 0 0
226 1 6.631183376939603 17.67154744803308 1.2634330750326597 0 0 0
227 1 8.051532813937454 16.31722520413442 2.6228985042928494 0 0 0
354 1 12.353548287566781 18.011801941327114 1.399815786858621 0 0 0
351 1 10.86878837697382 16.41868484101453 0.2483525624707994 0 0 0
355 1 13.523155868627075 16.333250701694645 2.684576243445838 0 0 0
482 1 17.524937650049527 17.577763157594298 1.491124620032504 0 0 0
483 1 19.12020659366769 16.302408716074 2.4149792511259034 0 0 0
99 1 2.7205845452764956 19.14935509045612 21.65712201508789 0 0 -1
221 1 5.33010468569847 19.138383683143484 2.848489932048593 0 0 0
94 1 4.158421768280874 20.631245020139307 1.30748662845842 0 0 0
220 1 9.624273817410314 20.57208133397619 1.5366589697401352 0 0 0
349 1 11.06146563309621 19.035220798697427 2.858630549592459 0 0 0
255 1 11.004917389847412 0.16699547131556258 0.25459348257497183 0 0 0
348 1 14.93124902379182 20.848228585707137 1.436401537259702 0 0 0
353 1 13.634273571944489 19.335773344694413 0.11751944538118764 0 0 0
383 1 16.272671546998158 0.22268817935163207 0.06753227945661777 0 0 0
477 1 16.40830188441645 19.228588206955944 2.744986228815516 0 0 0
95 1 0.12321354483323813 18.872651933540833 2.62781198310041 0 0 0
476 1 20.74669694570533 20.602208754896417 1.6256029968698256 0 0 0
481 1 19.258069255863543 19.276497109435294 0.28068898217405086 0 0 0
4 1 0.2973428438975191 3.2350977881029594 3.4104796909119837 0 0 0
2 1 1.9514492819744857 2.820773160800065 5.2922191160440395 0 0 0
37 1 4.0626825776419615 1.9103058053437272 4.221325790366726 0 0 0
136 1 5.2453020015482625 0.18744095981262968 5.195262911397052 0 0 0
138 1 7.924776020829194 2.7855725355363816 5.457919741708628 0 0 0
127 1 9.313602311687662 1.4751078025227273 4.206523574530144 0 0 0
254 1 14.942698725152155 1.5274451884806417 3.9946154899940214 0 0 0
265 1 13.88241534881944 2.785677971656089 5.452430255282917 0 0 0
382 1 20.60391023841695 1.2559532551668178 4.1424597840444175 0 0 0
393 1 19.063559936928613 2.5792863990201607 5.375723600104254 0 0 0
41 1 21.778680419345815 5.082623817697952 5.048681977148926 -1 0 0
32 1 5.019289855064744 5.945720793339828 5.0966987785502225 0 0 0
167 1 6.406161872848277 4.023800754612303 3.9308855968532272 0 0 0
295 1 10.738312292336138 5.510786628141607 5.553953870894398 0 0 0
256 1 12.442397164027435 4.261935428185259 4.207348457994447 0 0 0
384 1 17.842876628955135 4.108678394777378 4.091831320793484 0 0 0
423 1 16.383812003236773 5.48549001120993 5.347521262268378 0 0 0
34 1 1.335449218156335 8.848970066724831 4.126179221973512 0 0 0
43 1 3.2086749212267263 7.784661381117106 5.315649097988797 0 0 0
169 1 8.098416525471723 8.334645616859989 5.446289373007951 0 0 0
158 1 9.398247877921401 6.7773939943423 4.135831770576573 0 0 0
286 1 15.08199896771755 7.016035126662879 3.9908681705078646 0 0 0
297 1 13.495108480747287 8.03650658312203 5.579194216893685 0 0 0
416 1 17.78852273482415 9.363390553430213 3.9586399302893938 0 0 0
414 1 20.743935964163548 6.832733233555863 4.029000074802202 0 0 0
425 1 19.201863091411592 8.038694337319816 5.438508116842872 0 0 0
73 1 0.07765704078763536 10.530608089787345 5.297054784039843 0 0 0
199 1 5.446709454330249 10.741442088307442 5.475447417750627 0 0 0
64 1 4.092090632217253 12.094185852148128 4.2465507076451985 0 0 0
160 1 6.5884146985826435 9.40088212842016 4.040118433307996 0 0 0
327 1 10.848917410588296 10.637800098574138 5.47701404028707 0 0 0
190 1 9.383664586015888 12.021886607148735 4.014961733375975 0 0 0
288 1 12.336802470295057 9.381177822905672 4.289212195803674 0 0 0
318 1 15.243644480234606 12.040237411079694 3.897845458166904 0 0 0
455 1 16.435113304382014 10.575895634589529 5.27234327393785 0 0 0
446 1 20.49284596861788 12.120884576287025 4.042628642572699 0 0 0
66 1 1.4100999120250457 14.832970564395143 3.9637694397125576 0 0 0
75 1 2.6174017107786822 13.466511035382279 5.34301608239267 0 0 0
192 1 6.828713190683781 15.14221154934707 4.073212522051156 0 0 0
201 1 8.267429655627875 13.627289537039976 5.381389120256553 0 0 0
320 1 12.066214893162376 14.761398705858438 3.830703918826956 0 0 0
329 1 13.647431909086182 13.595192201454783 4.985273616342482 0 0 0
448 1 17.729918372272348 15.120862704604317 3.9148087952340247 0 0 0
457 1 19.0949146922857 13.550648811500492 5.204130474870871 0 0 0
96 1 3.998177398414773 17.760376829523143 4.107429470009986 0 0 0
231 1 5.556522387938281 16.48669840349154 5.356819932292064 0 0 0
222 1 9.41121302705561 17.80665279888669 3.8752277556068924 0 0 0
359 1 10.725176028473225 16.293857819508755 5.30035213782816 0 0 0
350 1 15.01199861603332 17.640200271222753 3.9972598373458488 0 0 0
487 1 16.431836099785443 16.385121622013692 5.467856277224359 0 0 0
105 1 0.14503703757753605 16.155724543525107 5.386687691963673 0 0 0
478 1 20.3983860462342 17.50338159708647 4.04775923564482 0 0 0
98 1 1.2775916184106864 20.20235390651321 3.9144594219218316 0 0 0
107 1 2.811346028212058 19.01818871154125 5.528273756882986 0 0 0
233 1 8.101330312079371 19.216787299918323 5.329820294568447 0 0 0
224 1 6.729901476220698 20.53699061099836 4.07560244035166 0 0 0
263 1 11.015382759705236 0.3788832512682603 5.364968605413758 0 0 0
352 1 12.244030135488721 20.521676529268696 4.109007751524595 0 0 0
361 1 13.535633991954985 19.075636401261182 5.528780521567259 0 0 0
391 1 16.233323125603427 0.015063822805986758 5.384413122839058 0 0 0
480 1 17.839697095959185 20.539087952135997 4.137744363409272 0 0 0
10 1 0.1905137308351309 21.596298890492932 5.501459714926851 0 -1 0
489 1 19.02375449735874 19.05427679611451 5.457903324166376 0 0 0
12 1 1.330103937272834 1.3574663099334252 6.89881856985964 0 0 0
13 1 21.566450548109977 2.850744125256798 8.13017212464561 -1 0 0
9 1 4.1270607075370975 1.4103199885742712 9.826125846773442 0 0 0
134 1 5.184305386535685 2.8732902049718922 8.093062897138127 0 0 0
139 1 6.622685146752114 1.274399486765759 6.809898820564188 0 0 0
261 1 10.93595877067706 2.717651260352917 8.167744456470128 0 0 0
266 1 12.253093701342012 1.462872482744272 6.7800265655059855 0 0 0
267 1 13.671400447661801 0.015450621466795237 8.239819837791657 0 0 0
394 1 17.527929595408523 1.421206040298925 6.762076380297855 0 0 0
389 1 16.215966858657232 2.666722064142098 8.196400049715937 0 0 0
395 1 19.128996805966928 0.04207284519586452 8.07716488755081 0 0 0
45 1 2.75693724078398 5.2947403982454855 8.179037087562353 0 0 0
8 1 4.017427790682363 4.131780854861445 6.30564495194245 0 0 0
171 1 8.129166356662031 5.372310169193788 8.051704683203242 0 0 0
133 1 9.490588139207059 4.079604130892634 6.855576033612467 0 0 0
264 1 12.234942657492837 4.2104045188095816 9.755493327983508 0 0 0
260 1 14.941087170234262 4.427416765651939 6.785073127032028 0 0 0
299 1 13.614705815438697 5.55257199989028 8.557309702761119 0 0 0
427 1 18.868510649905243 5.355168244750928 8.236030756071813 0 0 0
388 1 20.25766135557747 4.251629435777457 6.733572446818901 0 0 0
44 1 1.5765890575141073 6.615663797614099 6.551847999662361 0 0 0
39 1 0.16624216510958684 7.928875043818534 8.196347939113004 0 0 0
165 1 5.6012599129831635 8.084734399794588 8.2308834670459 0 0 0
170 1 6.838937501426756 6.6288742502626 6.403106634385053 0 0 0
293 1 10.930007834587565 8.40398461071118 8.30036301711103 0 0 0
298 1 12.097709757945834 6.711812924265853 7.136899868654443 0 0 0
426 1 17.63772218094681 6.879473025520973 6.794034813134674 0 0 0
421 1 16.506891765917242 8.251926900056672 8.32810064426123 0 0 0
76 1 1.1775684389577583 12.162136171780638 6.908908474972082 0 0 0
77 1 2.7556787206566455 10.79427858047279 8.181814899966835 0 0 0
38 1 4.191075924787407 9.383973200850495 6.933366722266837 0 0 0
203 1 8.129889925426859 11.173461154294072 8.050433261117279 0 0 0
202 1 6.742399152084954 12.347239323072827 6.797640367938338 0 0 0
164 1 9.317992055095276 9.520508079236208 6.949428350665344 0 0 0
330 1 12.270513270990426 12.218516511682598 6.3947221671487435 0 0 0
292 1 14.870285487136162 9.408395053450942 6.709020368623852 0 0 0
331 1 13.57440129383059 10.984313568289014 7.99758102298383 0 0 0
296 1 12.316562408930746 9.849680615990858 9.550975792964017 0 0 0
458 1 17.740904679594866 11.944754619546064 6.608805485431467 0 0 0
420 1 20.670080118810894 9.333962465477281 6.959919404897116 0 0 0
459 1 19.30829958759096 10.732079123995039 8.163840342875792 0 0 0
74 1 1.3821890044376661 14.99330019735363 9.537840724775405 0 0 0
70 1 4.079490139202274 15.119265285956333 6.635887060769802 0 0 0
197 1 5.503000367295037 13.654951609281728 8.0689090220754 0 0 0
196 1 9.483742674841508 14.85826286377351 6.852565079903249 0 0 0
325 1 11.000741263699737 13.473582996957509 7.809700227932952 0 0 0
324 1 14.807418210596987 14.948097128344251 6.673667595394873 0 0 0
453 1 16.401102145744993 13.376466875407374 7.775007369422167 0 0 0
71 1 21.74554976312397 13.797144796791356 8.124501570540332 -1 0 0
452 1 20.357561353089615 14.86465377030046 6.670566676946552 0 0 0
108 1 1.5502850574960112 17.562857295485653 6.774304494135141 0 0 0
109 1 2.75690943378347 16.17915619277614 8.130979737786827 0 0 0
104 1 4.053804574950169 17.61291826183943 9.264764527722196 0 0 0
234 1 6.832109592646166 17.911291921248136 6.709265376246705 0 0 0
235 1 8.183694859474114 16.539570269280148 8.21364752950637 0 0 0
362 1 12.104000670799243 17.715319090826274 6.787711314436248 0 0 0
363 1 13.615491403003789 16.472735262093504 8.201662939816524 0 0 0
490 1 17.63620311467527 17.7696477039022 6.916959784464876 0 0 0
491 1 18.986288017100666 16.285433748711117 8.132600458454077 0 0 0
14 1 2.9410241194775004 0.2114697688390891 8.359918634165448 0 0 0
106 1 1.4176548531347242 20.428935508909596 9.598462734783432 0 0 0
229 1 5.29552730490623 19.14163047022642 7.929762582974022 0 0 0
102 1 4.095098389028465 20.64515822318661 6.7303529156284805 0 0 0
140 1 8.27766841361601 21.63472457817762 7.778940013249212 0 -1 0
228 1 9.614585851335029 20.493446263696296 6.458736707825108 0 0 0
357 1 10.965103688833446 19.27730707053936 7.975820125341096 0 0 0
356 1 14.766762546090918 20.411257252330984 6.8331663388868416 0 0 0
485 1 16.318775640665972 19.159491160411033 8.10656916059222 0 0 0
103 1 0.1588899411284508 18.99638268306716 7.985382349265927 0 0 0
484 1 20.521552958516427 20.36690990391886 6.567215512290633 0 0 0
20 1 2.6756834237484464 2.877382481577685 11.008798794023246 0 0 0
21 1 1.4725851108836927 1.3721717446737607 12.417710143544092 0 0 0
144 1 5.66119359600752 0.02417020007485604 10.811534746384531 0 0 0
147 1 6.719601974804709 1.5885011114095737 12.216586389929276 0 0 0
146 1 8.167445593753031 2.732235336255798 10.703589380579237 0 0 0
135 1 9.47133637709045 1.1264072674800778 9.359893405564122 0 0 0
274 1 12.221175531409699 1.4474782314681027 12.359480531892869 0 0 0
271 1 10.810548430483076 21.64049144031686 10.970018177717668 0 -1 0
262 1 15.101317573966067 1.2927442835773928 9.59084687501468 0 0 0
273 1 13.76044855284815 2.755163260659961 10.983347376435123 0 0 0
402 1 17.891888930052993 1.3272811173707095 12.155334087093252 0 0 0
390 1 20.346191497935877 1.3023887180704012 9.607824096802604 0 0 0
401 1 19.13328974419699 2.8361826347063155 10.963585048421391 0 0 0
18 1 0.11364203769159063 0.026011591824224006 10.934241939587762 0 0 0
11 1 1.0517845343510415 4.072254483179339 9.507349357152194 0 0 0
49 1 0.025226102891183145 5.613860468192718 10.999726688357088 0 0 0
175 1 5.492045371708965 5.350288756543353 10.772345178946779 0 0 0
15 1 4.113042451984746 4.265842535573527 12.21464367659685 0 0 0
137 1 6.814266855066372 4.02773874115597 9.420161843941631 0 0 0
141 1 9.573942295238023 4.009760616065603 12.104833356856666 0 0 0
303 1 10.80335614281038 5.620974353421999 10.916082273456519 0 0 0
268 1 15.067646646578186 4.1757369051544915 12.138989421388262 0 0 0
392 1 17.4946724348611 4.016122702073429 9.577321053397116 0 0 0
431 1 16.273571502829245 5.516331980799765 10.88461414983337 0 0 0
396 1 20.486995370839594 4.295842177934456 12.358927374141095 0 0 0
51 1 3.020516710511244 8.31667341708139 10.96820185150724 0 0 0
52 1 1.466860116103405 6.9341510554433 12.1982358927769 0 0 0
40 1 4.197013375513085 6.6844875881464665 9.438366267990578 0 0 0
177 1 8.238425526939894 8.412189449286604 10.86181649250261 0 0 0
178 1 6.844552650453826 6.674394123074446 12.109256635093713 0 0 0
166 1 9.5768645767063 6.838013208404754 9.486704220438309 0 0 0
306 1 12.258158544213936 6.957639913766415 12.149035478119213 0 0 0
294 1 14.962991689989925 7.024751616584466 9.608012437509556 0 0 0
305 1 13.6227019419764 8.462801027529675 10.813613514113639 0 0 0
434 1 17.706698734920387 7.0156756040024915 12.31757485163334 0 0 0
422 1 20.495892340130627 6.719783185492835 9.367159837618322 0 0 0
433 1 19.263347055626273 8.02460869187172 10.883969263777233 0 0 0
42 1 1.3682121089164008 9.347913107080274 9.515573598896472 0 0 0
84 1 1.4557137058471237 12.146350710660904 12.222911163605973 0 0 0
81 1 0.0770140986022092 10.884801660767247 10.841558470247673 0 0 0
46 1 4.256740382342809 9.728349466355855 12.247601668310693 0 0 0
72 1 4.152455454882823 12.268810913721044 9.485231112946707 0 0 0
207 1 5.469642809460856 10.993409637061331 10.851896276124606 0 0 0
168 1 6.8481524217373835 9.719961718994773 9.528530305170623 0 0 0
210 1 6.7147419043804275 12.279031472422734 12.213616415344898 0 0 0
198 1 9.52672388888093 12.55081903742393 9.370789572122755 0 0 0
172 1 9.390523369136952 9.7460540894201 12.16083713395257 0 0 0
335 1 10.779976109966809 11.138106474103466 10.92725971803065 0 0 0
338 1 12.415421678991128 12.387673624518813 12.138814752302475 0 0 0
300 1 14.927307702750555 9.629705499885441 12.262433748001783 0 0 0
424 1 18.07943900154658 9.363805415063911 9.514298394735532 0 0 0
463 1 16.561769319669292 10.780090920541321 10.63632996382406 0 0 0
466 1 17.88696108971374 12.350851034163961 12.175791591450013 0 0 0
454 1 20.49793613030618 12.339500930871038 9.476667138998014 0 0 0
428 1 20.48552515579747 9.393138546010809 12.29001483233295 0 0 0
83 1 2.7642484155909064 13.580084814777273 10.763722240896705 0 0 0
78 1 4.010843593983565 14.819529447196576 12.280142466011194 0 0 0
200 1 6.90140657917661 15.147274775161844 9.387641467562647 0 0 0
209 1 8.071775991840473 13.745139709125507 11.070013830454704 0 0 0
204 1 9.699334122592207 15.035741800127202 12.280303968349925 0 0 0
328 1 12.323573756138277 14.94942348610229 9.316877731223734 0 0 0
326 1 14.964313442568262 12.32040068124833 9.3805150637056 0 0 0
337 1 13.655850656025343 13.79416096499495 10.91607649956843 0 0 0
332 1 15.114170919994958 15.286629226304404 12.260232786007874 0 0 0
456 1 17.478546520831937 14.80659090088174 9.392725599034128 0 0 0
465 1 19.30978037339004 13.825628108701022 10.686879159829143 0 0 0
460 1 20.51799985380454 14.931046245607908 12.35843520285002 0 0 0
116 1 1.2185398191678356 17.651188543542332 12.253033977572274 0 0 0
113 1 0.028327799551739474 16.201666615446705 10.846371235861348 0 0 0
239 1 5.3120622007799705 16.36359711807449 10.904997309535153 0 0 0
242 1 6.8060488690616 17.690262850597776 12.291451012918568 0 0 0
230 1 9.594896721040794 17.825438909880514 9.49533525233446 0 0 0
367 1 10.963796516055078 16.432187790220027 10.733779953379166 0 0 0
370 1 12.04682042780715 17.812018417285227 12.265238973864152 0 0 0
358 1 15.027862222390617 17.889240365753356 9.568382371152468 0 0 0
495 1 16.36300998067235 16.51270659097682 10.751361568694277 0 0 0
498 1 17.759862939982458 17.79278008881009 12.286685069020166 0 0 0
486 1 20.54986941680166 17.588793939539773 9.404254979656812 0 0 0
115 1 2.687086065956361 18.932445121444744 10.763579564570692 0 0 0
110 1 4.198741454318387 20.362239443845727 12.018636864239387 0 0 0
232 1 6.958601203192074 20.317232576840926 9.142501211972565 0 0 0
241 1 8.154261271897441 18.977093075061333 10.931071815071418 0 0 0
360 1 12.2527247508778 20.407606989973445 9.52240395672565 0 0 0
236 1 9.435095945566532 20.373039453606218 12.320263581787506 0 0 0
369 1 13.60011132039461 19.02358450396092 10.948267519712386 0 0 0
364 1 14.956499565112635 20.510455086152184 12.239934201009076 0 0 0
399 1 16.429093503447238 21.75544912106673 11.0231392546543 0 -1 0
488 1 17.909069788382663 20.370141608423307 9.561542002168313 0 0 0
497 1 19.275393890141256 19.100050597632627 10.838684603990005 0 0 0
492 1 20.47753856845836 20.513900738346578 12.276992655534054 0 0 0
16 1 21.779983044989244 2.61809062421144 13.575435204076141 -1 0 0
17 1 4.026415288241234 1.4128547615421383 15.032329400409639 0 0 0
142 1 5.279127290667575 2.8202861771545074 13.620830061883156 0 0 0
148 1 7.944225811342377 21.756015466641394 13.593778371920534 0 -1 0
143 1 9.4042525691014 1.232301827479602 14.866936718518424 0 0 0
269 1 10.77231941501621 2.8109519035729984 13.676979834129714 0 0 0
270 1 15.346119633492702 1.1122727561986787 15.037393844635247 0 0 0
275 1 13.574609771854435 0.08175906035136217 13.761042696632117 0 0 0
397 1 16.457382781035253 2.711027083612338 13.520152544918654 0 0 0
398 1 20.525366259979652 1.186198987750699 15.137327597735625 0 0 0
403 1 19.04337849952801 21.789536649720805 13.83407696744206 0 -1 0
19 1 1.3236359136714575 4.193760687523122 14.857232791200435 0 0 0
53 1 2.7765475695642787 5.578135203300594 13.516824721699994 0 0 0
145 1 6.880648798500544 4.10315556225127 14.896817212938467 0 0 0
179 1 8.301209796755447 5.371768180046674 13.428513137169158 0 0 0
272 1 12.118011055902302 3.9665265695706897 15.027983966829881 0 0 0
307 1 13.41842707706812 5.352437144142375 13.580492373463189 0 0 0
400 1 17.72703879512717 4.166264800400921 15.044426925924578 0 0 0
435 1 19.034273857428552 5.534678124335663 13.626265711939295 0 0 0
48 1 4.35705504315149 6.861250186382489 14.905417501523644 0 0 0
173 1 5.61051575282112 8.096425445489759 13.45255448353299 0 0 0
176 1 6.866933030797186 9.358547854180975 14.909417334684969 0 0 0
174 1 9.390793024310781 6.78052163805754 15.000533329974244 0 0 0
301 1 10.687221655011305 8.149572391975218 13.492842588060284 0 0 0
302 1 14.8091021533297 6.644090215954161 14.928020960128162 0 0 0
429 1 16.262581232201963 8.276641876976289 13.577251004699718 0 0 0
47 1 21.676848577735047 7.861845829307317 13.848678180779153 -1 0 0
430 1 20.280037716298224 6.79085063395541 15.178828506423706 0 0 0
50 1 1.3055095185822774 9.626129032102176 15.042863673997891 0 0 0
85 1 2.641099795717981 10.737435981453658 13.561943975110866 0 0 0
80 1 4.028040304381555 12.116511032341055 14.886989136786372 0 0 0
211 1 8.0184337811594 10.854333142377122 13.505904298167012 0 0 0
304 1 12.27497641942963 9.757798821866004 14.763681829049943 0 0 0
206 1 9.719286443262906 11.979881728224989 14.779131503669657 0 0 0
339 1 13.591867864468053 10.988573509051204 13.572818958002127 0 0 0
334 1 15.131228362580204 12.182111125482281 14.868609647438264 0 0 0
432 1 17.652288624878985 9.729453523310152 14.93342818673537 0 0 0
467 1 19.220541862204897 10.893522621850215 13.398690490699362 0 0 0
462 1 20.506823711888668 12.17897549688976 14.99237690643522 0 0 0
82 1 1.3511850865421406 14.822735218659643 15.074730157757354 0 0 0
205 1 5.464994623612838 13.476037124076843 13.694566326003056 0 0 0
208 1 6.962323524360047 15.092010603842812 14.898418770005446 0 0 0
333 1 11.022922331578672 13.553108514079945 13.691740908322958 0 0 0
336 1 12.56417922824081 14.756745666203031 14.973572839838244 0 0 0
461 1 16.499432501013203 13.789799859124793 13.452722880780467 0 0 0
464 1 17.649691916518158 15.156087154052912 15.226131704022713 0 0 0
79 1 0.1596430838096062 13.523334095491133 13.533443864539057 0 0 0
117 1 2.561066996486632 16.203415397599088 13.557701025985601 0 0 0
112 1 4.091331248073568 17.360832660097206 15.01305621879795 0 0 0
243 1 8.286189112299617 16.481797967823358 13.750567500688758 0 0 0
238 1 9.523840587752659 17.745662156114996 15.262332438568432 0 0 0
366 1 14.95563463777607 17.954003558421793 15.05510028870233 0 0 0
371 1 13.9124941990462 16.438016370738822 13.745492073296974 0 0 0
499 1 19.18726586265282 16.376467122256 13.765725161241662 0 0 0
494 1 20.615068856543427 17.87939622770949 15.142166460726894 0 0 0
22 1 2.831653767536118 21.660802397011917 13.636519138940347 0 -1 0
114 1 1.517970630372242 20.362570712549196 14.993505857685971 0 0 0
237 1 5.356797489276857 18.93029826374341 13.593651126062708 0 0 0
240 1 6.741014862482829 20.27684751713556 15.06232383382115 0 0 0
365 1 10.856729451627912 19.144077707441777 13.732826049345947 0 0 0
368 1 12.217107708441763 20.33362987410279 15.00215770359869 0 0 0
493 1 16.325442353613678 19.1125426066349 13.675265198745015 0 0 0
496 1 17.67867337362232 20.48689216009315 15.181847846326532 0 0 0
111 1 21.789049024028458 19.129309914010538 13.623281959572564 -1 0 0
29 1 1.3782814821241218 1.5986155797601496 17.70940121392898 0 0 0
28 1 2.681538019375808 2.741736756952002 16.272074095870153 0 0 0
26 1 0.2614255171023494 21.697210069470906 16.51123789435454 0 -1 0
155 1 6.883206215160126 1.4998348472481877 17.676058042445877 0 0 0
154 1 8.27814358205158 2.8276317906174864 16.212890036906774 0 0 0
282 1 12.193552049948178 1.2435974410333217 17.663593057631658 0 0 0
279 1 10.796795916698594 21.685826381695325 16.333852940897422 0 -1 0
281 1 13.708486107177702 2.5333331539506716 16.343468888841205 0 0 0
410 1 17.74721027325724 1.2243651604114072 17.784743480795974 0 0 0
407 1 16.449336406723283 21.697563839780774 16.512724648888405 0 -1 0
409 1 19.066729239905165 2.654049908900359 16.49132809559286 0 0 0
57 1 21.764893889572107 5.465928384846037 16.42665380565684 -1 0 0
23 1 4.136306983869281 4.103288167890816 17.66928830984961 0 0 0
183 1 5.456780378246506 5.449681163233898 16.4137586086434 0 0 0
149 1 9.678590441843449 4.085267184057108 17.704139004982437 0 0 0
311 1 10.951992063325278 5.418668274759338 16.294367066793402 0 0 0
276 1 14.881154469907152 3.9299618806845595 17.91534886001628 0 0 0
439 1 16.0848917046266 5.387897587779173 16.51356363928056 0 0 0
404 1 20.39939539153562 4.121490675304515 17.753308452465916 0 0 0
60 1 1.4646337694624834 6.75890318860896 17.716426259872193 0 0 0
59 1 2.7102911341102516 8.128394791085716 16.191476645852177 0 0 0
185 1 8.056670259078293 8.1879098861956 16.3267192283283 0 0 0
186 1 6.830823171652361 6.740282034254455 18.035360561220916 0 0 0
314 1 12.117774146189769 6.835232214753251 17.603243623673936 0 0 0
313 1 13.523837823653503 8.163508334860436 16.18700161774934 0 0 0
308 1 14.936971011377636 9.398673720306567 17.701363004137175 0 0 0
442 1 17.81525315647652 6.734534781345746 17.705958248553102 0 0 0
441 1 18.986128448282123 8.316491786811731 16.413872564861084 0 0 0
92 1 1.3203243666494133 12.274995504183723 17.581333252906003 0 0 0
89 1 21.7906660730913 10.916872409624009 16.373761023891518 -1 0 0
54 1 3.9908746245824736 9.450372954921587 17.76857914257811 0 0 0
215 1 5.450241279794424 10.578295897766003 16.233800732962386 0 0 0
218 1 6.688268642729331 12.199207687449475 17.544489781350855 0 0 0
180 1 9.483571849388248 9.567233968785809 17.648472695059002 0 0 0
343 1 10.778372415319037 10.867016025354467 16.311563685497912 0 0 0
346 1 12.267302847065313 12.167193891202995 17.491217362959482 0 0 0
471 1 16.30443786924132 10.91808434343942 16.34868038934181 0 0 0
474 1 17.55463837040422 12.206426902330886 17.643112768066622 0 0 0
436 1 20.282993957591135 9.52806082568841 17.601770762653416 0 0 0
91 1 2.8119539602901136 13.46388728704504 16.166905694524722 0 0 0
86 1 4.031453983767331 14.716049578071786 17.62952059055944 0 0 0
217 1 8.354116175132281 13.483583252822488 16.12119965679254 0 0 0
212 1 9.482667077695398 14.869221149442536 17.64214588845769 0 0 0
340 1 14.894294373602564 14.982905902058633 17.838066254163362 0 0 0
345 1 13.83142282156526 13.462559869050848 16.42954661640744 0 0 0
473 1 19.056370052575122 13.669471973720658 16.395979305957056 0 0 0
468 1 20.348601206661538 15.089789902156333 17.759625987190297 0 0 0
124 1 1.5927475365086647 17.74459583209786 17.743136226933327 0 0 0
247 1 5.497386831696124 16.174215277631475 16.41758356818585 0 0 0
250 1 6.842037519741942 17.609221980589524 17.82846987030417 0 0 0
375 1 11.026036739846637 16.17385807658944 16.321112206254057 0 0 0
378 1 12.21193187564478 17.745697525547037 17.753278928814588 0 0 0
503 1 16.292710828063356 16.59145953275183 16.460830212013313 0 0 0
506 1 17.862697299736762 17.782446028185632 17.86462186975989 0 0 0
121 1 0.03558084152744456 16.325600083452777 16.41856710863685 0 0 0
123 1 2.873744395606836 18.995437989640852 16.300785391865617 0 0 0
152 1 5.399855504632322 0.15710509729952365 16.424303136243772 0 0 0
118 1 4.125957054830775 20.549528134272283 17.605357693981308 0 0 0
249 1 8.128565282573739 19.050934003181002 16.52573630152269 0 0 0
244 1 9.449461075470579 20.5147952355854 17.83784126262777 0 0 0
377 1 13.591892193177891 19.21235468525915 16.54038737379899 0 0 0
372 1 14.955293859919562 20.4845479011969 17.791100757438784 0 0 0
505 1 19.18926019565319 19.3146213564219 16.603375455113536 0 0 0
500 1 20.660432576877298 20.446195935626807 17.9516137532549 0 0 0
24 1 0.03384602038979722 2.7661863485619187 19.18681447154206 0 0 0
128 1 5.54548179180641 0.13878648687364148 21.637878222318914 0 0 -1
25 1 4.1324926991375515 1.6324365052569227 20.474381072215458 0 0 0
150 1 5.537274732627959 2.791899342133238 18.937087654345888 0 0 0