LAMMPS (10 Sep 2025)
OMP_NUM_THREADS environment is not set. Defaulting to 1 thread.
  using 1 OpenMP thread(s) per MPI task
Loaded 1 plugins from C:\Users\lmike\AppData\Local\LAMMPS 64-bit 10Sep2025 with GUI\plugins
# LAMMPS input generated from LammpsInputFile with pymatgen v2025.10.7

# STYLES
units metal
atom_style atomic

# SET UP CALCULATION
read_data starting_config.dat
Reading data file ...
  orthogonal box = (0 0 0) to (21.790885 21.790885 21.790885)
  1 by 1 by 1 MPI processor grid
  reading atoms ...
  507 atoms
  read_data CPU = 0.005 seconds
pair_style sw
pair_coeff * * Si.sw Si
Reading sw potential file Si.sw with DATE: 2007-06-11
velocity all create 1100 1126735

# CALCULATION PARAMETERS
fix f1 all nvt temp 1100.0 1100.0 $(100.0*dt)
fix f1 all nvt temp 1100.0 1100.0 0.10000000000000000555
thermo 100000
thermo_style custom step temp press spcpu cpuremain

# RUN CALC AND WRITE OUTPUTS
dump d1 all custom 100 state_dump id type x y z vx vy vz
run 10000000
Neighbor list info ...
  update: every = 1 steps, delay = 0 steps, check = yes
  max neighbors/atom: 2000, page size: 100000
  master list distance cutoff = 5.77118
  ghost atom cutoff = 5.77118
  binsize = 2.88559, bins = 8 8 8
  1 neighbor lists, perpetual/occasional/extra = 1 0 0
  (1) pair sw, perpetual
      attributes: full, newton on
      pair build: full/bin/atomonly
      stencil: full/bin/3d
      bin: standard
Per MPI rank memory allocation (min/avg/max) = 3.117 | 3.117 | 3.117 Mbytes
   Step          Temp          Press          S/CPU         CPULeft    
         0   1100          -1648.0757      0              0            
    100000   1112.7301     -7505.3332      404.95897      24446.921    
    200000   1113.0558     -8199.1919      420.32878      23757.533    
    300000   1068          -8701.6737      485.41168      22337.752    
    400000   1025.0406     -8618.454       524.98867      21152.126    
    500000   1133.8019     -8901.4433      520.09284      20398.627    
    600000   1055.6165     -8191.6596      539.93978      19721.479    
    700000   1040.3265     -8276.2878      531.5867       19223.55     
    800000   1090.5736     -8137.2071      530.23356      18808.595    
    900000   1052.7082     -7862.4101      536.87021      18420.369    
   1000000   1089.3925     -8485.5137      529.46836      18095.971    
   1100000   1098.3701     -8357.6715      526.38054      17805.179    
   1200000   1072.1279     -6952.8705      539.60597      17497.044    
   1300000   1134.5029     -8779.5066      525.14808      17241.948    
   1400000   1136.8502     -8436.6543      524.27784      16998.032    
   1500000   1128.0278     -7767.4973      533.46704      16742.589    
   1600000   1053.132      -8220.9362      528.99501      16503.964    
   1700000   1067.5496     -8846.1682      538.19049      16255.404    
   1800000   1043.8007     -8342.1069      530.92077      16025.406    
   1900000   1073.3595     -9160.9231      536.77078      15791.041    
   2000000   1124.2992     -7945.3576      535.16195      15563.723    
   2100000   1117.7821     -7981.5145      535.35981      15339.998    
   2200000   1092.7301     -8267.9366      545.24557      15107.623    
   2300000   1037.403      -8191.8338      531.27475      14895.654    
   2400000   1084.6922     -9207.1032      555.12437      14660.054    
   2500000   1122.486      -8102.0447      535.03322      14449.185    
   2600000   1096.5735     -8603.4795      540.81344      14234.474    
   2700000   1075.4432     -7930.0513      543.00774      14019.951    
   2800000   1066.465      -8407.5578      531.34269      13817.992    
   2900000   1052.5373     -8556.5356      557.32675      13595.5      
   3000000   1102.6208     -8434.9204      538.3897       13390.605    
   3100000   1109.7161     -8040.1403      536.76279      13188.199    
   3200000   1073.8267     -8759.8239      529.27245      12992.402    
   3300000   1056.1782     -9740.061       556.62251      12778.172    
   3400000   1149.6401     -7856.6053      542.96722      12574.746    
   3500000   1098.8091     -8025.305       539.44477      12374.654    
   3600000   1200.4838     -7144.2237      540.28407      12174.868    
   3700000   1188.2331     -6829.2874      524.23354      11985.525    
   3800000   1118.6245     -8144.6084      534.21254      11790.294    
   3900000   1107.9969     -7753.5736      534.65215      11595.235    
   4000000   1145.4227     -7708.798       546.3679       11394.56     
   4100000   1031.7157     -8481.1371      533.96855      11200.863    
   4200000   1064.9647     -8170.9869      542.06955      11003.606    
   4300000   1099.648      -7622.6193      537.98848      10808.799    
   4400000   1142.1144     -8943.0427      516.2131       10624.377    
   4500000   1060.1771     -7516.7727      537.53476      10430.15     
   4600000   1038.1618     -8275.2834      529.3401       10239.66     
   4700000   1175.9203     -7755.7542      535.32725      10046.855    
   4800000   1118.3631     -8949.6785      547.70526      9849.7265    
   4900000   1071.7477     -8299.3706      545.7793       9653.8623    
   5000000   1110.3323     -8485.7556      540.57213      9460.2687    
   5100000   1129.4754     -6796.0126      533.97037      9269.2099    
   5200000   1103.1651     -7692.0651      539.7974       9076.4305    
   5300000   1055.9436     -8713.8045      536.67881      8884.8896    
   5400000   1123.972      -7479.5842      536.79282      8693.508     
   5500000   1162.284      -7500.0209      536.40163      8502.4227    
   5600000   1123.0102     -7829.1081      538.39962      8310.9601    
   5700000   1086.5899     -7833.8252      531.04998      8121.6377    
   5800000   1135.1053     -7370.512       519.42616      7935.4017    
   5900000   1146.2017     -7180.3229      534.85729      7745.093     
   6000000   1083.2349     -8391.4292      528.52479      7556.389     
   6100000   1092.6454     -8176.4271      541.47144      7364.7763    
   6200000   993.4388      -8706.4196      532.78968      7175.2316    
   6300000   1110.4998     -7925.7638      539.79845      6984.3145    
   6400000   1068.4569     -7302.6804      539.95956      6793.5433    
   6500000   1135.4762     -7608.9015      537.71947      6603.3589    
   6600000   1031.7965     -8300.2252      528.65447      6414.945     
   6700000   1007.8953     -8091.008       529.26124      6226.402     
   6800000   1123.8106     -7459.1587      521.88616      6039.1038    
   6900000   1060.8113     -7540.4565      545.4361       5847.9636    
   7000000   1096.8542     -8521.4902      546.95662      5656.8278    
   7100000   1099.9543     -8154.7672      542.72028      5466.509     
   7200000   1117.7307     -7755.7507      537.69735      5277.0278    
   7300000   1101.4326     -7558.6731      523.22057      5089.5459    
   7400000   1016.4935     -8757.5485      504.75471      4904.4222    
   7500000   1073.2723     -8970.9428      539.262        4714.7263    
   7600000   1137.4718     -8079.8837      547.36619      4524.2753    
   7700000   1112.3087     -7671.9364      519.01986      4337.0063    
   7800000   1076.8157     -8009.4505      527.7507       4148.6997    
   7900000   1108.5118     -8183.0138      524.598        3960.666     
   8000000   1118.3221     -8381.2336      537.51235      3771.4226    
   8100000   1138.7242     -8651.2243      541.61667      3581.9276    
   8200000   1034.6547     -8995.5048      529.02647      3393.5157    
   8300000   1204.8536     -7350.0782      535.0537       3204.6529    
   8400000   1147.4327     -7404.2759      554.56581      3014.5843    
   8500000   1083.9308     -8499.9561      533.26379      2826.0163    
   8600000   1099.154      -8282.5892      536.57594      2637.284     
   8700000   1175.2818     -7092.8471      546.78729      2448.0861    
   8800000   1066.1768     -8788.2494      554.73742      2258.6742    
   8900000   1139.2662     -8386.3418      544.2732       2069.8962    
   9000000   1077.2524     -8344.0731      523.38627      1882.0451    
   9100000   1158.9536     -7507.57        525.96299      1694.0308    
   9200000   1147.5067     -8023.3981      539.35711      1505.5599    
   9300000   1102.745      -8047.8549      543.79702      1317.0411    
   9400000   1144.3035     -8466.1203      610.28426      1127.3419    
   9500000   1068.0522     -9726.3648      647.23176      937.6944     
   9600000   1059.3597     -7898.9673      752.14394      747.88112    
   9700000   1104.5516     -7566.756       766.60687      559.16263    
   9800000   1035.9431     -7418.8489      769.96594      371.62179    
   9900000   1074.4784     -7808.4021      777.75426      185.23276    
  10000000   1135.9885     -8665.5399      783.51273      0            
Loop time of 18465.7 on 1 procs for 10000000 steps with 507 atoms

Performance: 46.790 ns/day, 0.513 hours/ns, 541.545 timesteps/s, 274.563 katom-step/s
99.5% CPU use with 1 MPI tasks x 1 OpenMP threads

MPI task timing breakdown:
Section |  min time  |  avg time  |  max time  |%varavg| %total
---------------------------------------------------------------
Pair    | 18177      | 18177      | 18177      |   0.0 | 98.44
Neigh   | 9.3833     | 9.3833     | 9.3833     |   0.0 |  0.05
Comm    | 44.722     | 44.722     | 44.722     |   0.0 |  0.24
Output  | 149.3      | 149.3      | 149.3      |   0.0 |  0.81
Modify  | 67.547     | 67.547     | 67.547     |   0.0 |  0.37
Other   |            | 17.39      |            |       |  0.09

Nlocal:            507 ave         507 max         507 min
Histogram: 1 0 0 0 0 0 0 0 0 0
Nghost:           1416 ave        1416 max        1416 min
Histogram: 1 0 0 0 0 0 0 0 0 0
Neighs:              0 ave           0 max           0 min
Histogram: 1 0 0 0 0 0 0 0 0 0
FullNghs:        17770 ave       17770 max       17770 min
Histogram: 1 0 0 0 0 0 0 0 0 0

Total # of neighbors = 17770
Ave neighs/atom = 35.04931
Neighbor list builds = 12094
Dangerous builds = 0
write_data FINAL_STRUCTURE
System init for write_data ...
Total wall time: 5:07:45
