LAMMPS data file via write_data, version 10 Sep 2025, timestep = 10000000, units = metal

511 atoms
1 atom types

0 21.763403 xlo xhi
0 21.763403 ylo yhi
0 21.763403 zlo zhi

Masses

1 28.085

Atoms # atomic

7 1 1.220238150144302 1.2676960576854985 1.7455675083751268 0 0 0
2 1 21.652298757834927 2.6749849523555835 2.95403729799702 -1 0 0
1 1 5.365835681068161 2.830542400359362 2.849743851472718 0 0 0
132 1 5.349826216555287 21.758593686230128 0.03659663020672412 0 -1 0
130 1 6.7159505890356685 1.4625756214767716 1.5217198862086383 0 0 0
135 1 8.031777395648843 2.811860654823002 0.1528473566618153 0 0 0
136 1 8.154227514355886 21.60721327635987 2.820512928097754 0 -1 0
257 1 10.698068945247748 2.657588805328548 2.761178262318003 0 0 0
262 1 11.999288504425392 1.282032163239454 1.3446581782879221 0 0 0
259 1 10.788473843550484 21.695760835741357 0.09791852113872476 0 -1 0
419 1 13.473314971657256 2.4439930852883864 21.6663097557536 0 0 -1
352 1 13.607535095245227 0.061910117707934115 2.7264058802762143 0 1 0
391 1 17.595281048323912 1.507828143286744 1.4404800628389771 0 0 0
423 1 16.16892164014966 2.952273595741463 2.704969748739119 0 0 0
389 1 19.026205395551063 2.8111136638211622 0.009373928412254817 0 0 0
44 1 2.6006215519336595 5.301908195397822 3.090340657996872 0 0 0
40 1 3.8668362575645814 4.055152869300804 1.5222115214729992 0 0 0
164 1 5.29656280136349 5.512605894590692 0.33441347807203275 0 0 0
168 1 7.957084672976245 5.403897137688031 2.962525818473593 0 0 0
134 1 9.540038380298725 4.105107045152668 1.585565748464246 0 0 0
291 1 10.984682146739775 5.30338277045559 0.14042301988549366 0 0 0
260 1 13.549683727025236 5.451453270259084 2.705268138769497 0 0 0
295 1 14.734369207331241 4.111715592636173 1.1033421012974438 0 0 0
412 1 16.238575611867436 5.4337928673074956 21.76207880287457 0 0 0
416 1 18.99419983191411 5.289621915856716 2.9530158763104426 0 0 0
36 1 20.23731989614485 4.04863142736503 1.498634707572528 -1 0 0
39 1 21.735651125013067 5.438942006321193 0.2041168316636435 -1 0 0
5 1 1.255527337981324 6.6371552516140015 1.6812140130606557 0 0 0
38 1 2.615704620309905 8.019918210979558 0.26594715988693124 0 0 0
162 1 5.424561835722341 8.22715695057768 2.931587037938452 0 0 0
33 1 4.0392043508874425 9.435436765875986 1.4677052160640913 0 0 0
167 1 6.6502951454914285 6.742547289492728 1.5753866480497443 0 0 0
166 1 8.098884461767401 7.99714720974957 0.1892746926848741 0 0 0
289 1 12.114551700046125 6.858960107580121 1.468816744012593 0 0 0
292 1 10.759184149878449 8.214825323299506 2.7277855619345375 0 0 0
288 1 14.852789537544215 9.350835038055203 1.5656509052856338 0 0 0
294 1 13.54222420122817 7.916277187945922 21.70202354026361 0 0 -1
422 1 16.19378021360048 7.965510725464883 2.9361198986806403 0 0 0
441 1 17.707097731049483 6.630966048539111 1.4368086667760263 0 0 1
314 1 19.044074766299737 8.184730385399874 0.21388829011276791 0 0 1
68 1 20.289633468780544 9.316509178688184 1.6390808509256796 -1 0 0
71 1 1.3837225709847758 12.10621492700997 1.2155232026868383 0 0 0
196 1 5.3565069575702 10.84607082056441 0.2503617995893397 0 0 0
200 1 8.344168251267137 10.865412182331252 3.129806062638428 0 0 0
199 1 6.8431999221584805 12.190078130161622 1.7997478282244412 0 0 0
161 1 9.438595571309595 9.538284552432398 1.4304792726964717 0 0 0
326 1 12.193199892796606 12.240999013049533 1.3902140717564127 0 0 0
323 1 10.840878015397076 10.74052212349037 0.05068626776737474 0 0 0
322 1 13.443011326921797 10.745497222511592 2.758121810012562 0 0 0
449 1 17.751943360029973 12.338152729250277 1.4922959660983703 0 0 0
420 1 16.234115615820752 10.845183782238927 0.2339208174665603 0 0 0
90 1 21.67019295835835 10.772554265584978 0.16302710697099773 -1 0 1
454 1 18.88020044714723 10.711987055967912 2.7862890731546077 0 0 0
70 1 2.730307372186413 13.571750202647513 0.11474661606230346 0 0 0
65 1 4.0160835163490365 14.839143705674681 1.5154205537636476 0 0 0
194 1 5.4345114121265095 13.579995409717725 2.953755219129721 0 0 0
198 1 8.006153209693489 13.278371876471624 0.17125621863541257 0 0 0
193 1 9.393514254697207 14.643970827021722 1.6607611894308436 0 0 0
321 1 10.715317245188725 13.275644803806404 3.152212593442107 0 0 0
324 1 14.8776910909011 14.862273214365622 1.4898166713641807 0 0 0
483 1 16.33956723863251 13.597706007975534 2.8399985266647643 0 0 0
66 1 21.73741566003453 13.626389404714425 2.7121945818184767 -1 0 0
448 1 20.424552346788314 15.002193420422723 1.3898734231667418 0 0 0
453 1 19.07009413574696 13.590910338476284 0.005287946042486905 0 0 0
104 1 2.6332125981569585 16.13929495658731 2.9463604328661432 0 0 0
98 1 1.4177095585666977 17.579075314484296 1.5109510838254758 0 0 0
103 1 0.15634654141038276 16.293849496822997 0.12656410122310024 0 0 0
228 1 5.453541041439273 16.26859696373029 0.12044329556025961 0 0 0
231 1 6.767366674526635 17.397247629375236 1.5200228121114343 0 0 0
232 1 8.135341277624102 16.166715461802948 3.044254720213177 0 0 0
358 1 12.200508661182326 17.756048470402867 1.3801436003317422 0 0 0
355 1 10.749840905575795 16.234351619266057 0.30516330170437667 0 0 0
333 1 13.610892505780466 16.38649536992255 2.8413045582477556 0 0 0
486 1 17.680860703048157 17.72370188312188 1.50911065339649 0 0 0
487 1 19.050872967816986 16.317695357601796 2.758912455538 0 0 0
8 1 2.8113021886676997 0.04325356029429983 3.01615106424496 0 0 0
102 1 2.6615092565917013 19.090881340662964 0.05893046025319612 0 0 0
97 1 4.064589939510034 20.28247574756804 1.6589945546385274 0 0 0
226 1 5.441639821551173 18.783628176869144 2.939799636579765 0 0 0
225 1 9.419733404445344 20.31423920526889 1.5354553908777535 0 0 0
353 1 10.680767795459357 18.894846661063756 2.8369554150634015 0 0 0
481 1 14.97814106031755 20.4429700031594 1.43426432195074 0 0 0
357 1 13.554913483340856 19.080397082104078 0.09407526400346401 0 0 0
387 1 16.411395550425443 21.73817064867064 0.16678373336820862 0 -1 0
354 1 16.378208547189118 19.23112761592627 2.8513124716157674 0 0 0
484 1 19.063387028436495 0.19066997023695365 2.715959457940359 0 1 0
482 1 21.727127543790978 19.031945809049773 2.9020103532209607 0 0 0
4 1 0.02828226071422435 0.05245681364917587 0.21726597796179967 0 0 0
386 1 20.46184021582635 20.497950114998275 1.5481733653048055 0 -1 0
3 1 2.5156141714807676 2.595496707443522 5.811982751002951 0 0 0
140 1 4.195266951449266 1.5110370096527685 4.392826145423113 0 0 0
142 1 8.034254032937998 2.6138545070522534 5.531028414001273 0 0 0
131 1 9.484721978487034 1.3341323744340596 4.272024520358616 0 0 0
267 1 10.674157513387405 21.5408973035952 5.660378769800254 0 -1 0
270 1 13.31897900226102 2.754876324710604 5.459986464386579 0 0 0
390 1 14.837484009146994 1.528913046764692 4.063218120847744 0 0 0
397 1 20.450476106447375 1.4889299201466586 4.523017648991895 0 0 0
388 1 18.85111981302677 2.7491899804143123 5.724720321904415 0 0 0
14 1 1.2403291796008478 3.9646227877778935 4.513269954112029 0 0 0
175 1 5.344748188374254 5.365863313461479 5.6094911118906845 0 0 0
133 1 6.732676251971882 4.036529472607529 4.249876166637991 0 0 0
302 1 10.80082362530036 5.382178911466203 5.4504076636535554 0 0 0
269 1 12.118480463161422 4.119492622703463 3.9916466244299884 0 0 0
384 1 17.436828248900458 4.018044521042625 4.209890046392291 0 0 0
430 1 16.13828848471983 5.456385171636253 5.620752749154867 0 0 0
47 1 21.617984549964024 5.334101595596931 5.789353376556611 -1 0 0
35 1 2.5891637266028167 7.941151529887164 5.491855552328189 0 0 0
172 1 4.264336762047181 6.6475817330174936 4.308514041106816 0 0 0
174 1 8.198387551208546 8.054422389182808 5.741902892107103 0 0 0
163 1 9.447951409528473 6.724351115224447 4.165883793852788 0 0 0
290 1 13.288255712099334 8.364239585058346 5.483352649416748 0 0 0
417 1 14.65724761830482 6.8104579559039475 4.294870179139971 0 0 0
34 1 21.72719080205051 7.9650944647932125 3.05676572847406 -1 0 0
418 1 20.134747629130647 6.5749163295305095 4.328693783643637 0 0 0
429 1 18.837039598354465 8.077308027014777 5.601546266773655 0 0 0
72 1 2.5814985079220616 10.68346311501086 2.76705691644698 0 0 0
37 1 1.4261774191316878 9.468092421552477 4.241371094196148 0 0 0
204 1 5.3161109182022255 10.771590626383693 5.666336564709296 0 0 0
67 1 3.885305983057818 12.08586316222243 4.204372914994614 0 0 0
165 1 6.884511713234272 9.391564536350552 4.3926567602663935 0 0 0
195 1 10.252999607016335 11.556820512275237 4.76854939940722 0 0 0
327 1 11.942822885476138 9.686730781842552 4.171649019550845 0 0 0
367 1 14.753753187793018 12.310296022223161 4.035525635852939 0 0 0
455 1 17.490337779530392 9.47172353451126 4.206903395507893 0 0 0
459 1 16.121417148409158 10.954325656674216 5.502789062091223 0 0 0
76 1 21.667366158679137 10.83044907539433 5.419151824948747 -1 0 0
450 1 20.29097081917822 12.181807276368431 4.019960162874334 0 0 0
69 1 1.0851527991879135 14.936505127773147 4.305769140279905 0 0 0
78 1 2.613915100165576 13.639139816617217 5.44739708671393 0 0 0
197 1 6.832069470107656 14.681874864131062 4.387761888366998 0 0 0
206 1 8.334451738082922 13.451618099087648 5.680173488542437 0 0 0
328 1 12.121138116199775 15.043654437409415 4.338975719856812 0 0 0
334 1 13.614364298504281 13.59321338086634 5.4875626616846365 0 0 0
320 1 17.630759848620578 14.996342852606587 4.242184626334486 0 0 0
461 1 18.896293670030566 13.443237128179714 5.632044365903367 0 0 0
99 1 4.049214826412604 17.37746556369543 4.454709449174612 0 0 0
236 1 5.58524900069055 16.1117470370658 5.707224985252698 0 0 0
227 1 9.558257012059222 17.532303812342803 4.368909854077262 0 0 0
363 1 10.929282525456081 16.31832025719933 5.812267027051961 0 0 0
366 1 14.936567672638363 17.703606388326065 3.901866581582905 0 0 0
365 1 16.14793530173615 16.26121774899628 5.427378620103378 0 0 0
108 1 21.49221990774646 16.144570246891117 5.574559613780535 -1 0 0
452 1 20.2941348281825 17.76268594586676 4.206334695898556 0 0 0
101 1 1.3038441377580796 20.295204500479855 4.36764933646037 0 0 0
110 1 2.724390520611318 18.944150278246934 5.689047770486537 0 0 0
105 1 5.4172387684707735 21.681023084384144 5.553886648686773 0 0 0
229 1 6.948381912365578 20.260384468927597 4.229910141672937 0 0 0
238 1 8.247967878238281 18.999334710112848 5.6676112044675975 0 0 0
356 1 12.061835404951717 20.4257338141809 4.011725562739461 0 0 0
395 1 13.633325997865544 19.10004965552198 5.339428927937208 0 -1 0
263 1 16.181026495094944 0.2149319232664908 5.432223589349863 0 0 0
258 1 17.71073411664304 20.60170494365554 4.162396564214524 0 -1 0
12 1 21.72217676898103 21.613008105026022 5.832926672538041 -1 -1 0
493 1 18.833762183053636 19.036428642268074 5.4215437467232315 0 0 0
15 1 1.2561307134853892 1.3505453520620825 7.099775695515103 0 0 0
13 1 21.73856970767942 2.7383048721951577 8.54967313311652 -1 0 0
109 1 2.611710548790091 21.59863144210522 8.453692897049113 0 0 0
138 1 5.370999507371007 2.6759960432185492 8.29567887529257 0 0 0
143 1 6.6710307531003625 1.380823155452185 6.99625485402559 0 0 0
144 1 7.99117376726304 21.719966643202554 8.316928307412546 0 -1 0
137 1 10.733305597218491 2.753351859872527 8.28674992002054 0 0 0
271 1 11.996736319284588 1.3194356529925697 6.77118125092642 0 0 0
398 1 17.522999786587327 1.3474974208908543 7.059386914013045 0 0 0
264 1 16.113452818468286 2.7577452874225377 8.250312167336098 0 0 0
48 1 2.6672962765433605 5.37326915762966 8.337981771246731 0 0 0
9 1 4.078474180683148 4.012736328476484 6.896612034508479 0 0 0
171 1 8.0427485016648 5.587588437155902 8.175490270539932 0 0 0
299 1 9.373993200324525 4.086519684716546 6.85026968656614 0 0 0
303 1 13.347757302323194 5.453732148790223 8.337795050258308 0 0 0
427 1 14.644294196943674 4.079259126334381 7.024042194282073 0 0 0
392 1 18.92690914434136 5.400511901419669 8.23836663972274 0 0 0
10 1 20.29778373379917 3.9172284275891323 7.074354189321551 -1 0 0
46 1 1.4251164654786521 6.799469328972224 6.983590195586713 0 0 0
170 1 5.259410548025994 8.159496213962418 8.34172906853749 0 0 0
176 1 6.644271066262308 6.787354636189804 7.016215351593046 0 0 0
297 1 11.001709363529327 8.259254214401388 8.189040011502069 0 0 0
301 1 12.099738282471765 6.745655349040534 6.853097344453393 0 0 0
425 1 17.390038204750105 6.741194381194986 6.934159567513986 0 0 0
298 1 16.162083987877587 8.258785285523713 8.267399434889455 0 0 0
42 1 21.715244131808685 8.06943557888052 8.329779951430096 -1 0 0
80 1 2.5304038020739275 10.90737567128231 8.192816453964893 0 0 0
79 1 1.1232584776097545 12.354089319040078 6.802081004736126 0 0 0
41 1 3.8985802588985696 9.364514103894253 6.888662676499349 0 0 0
208 1 8.228855635317673 10.971462084313563 8.176574175711155 0 0 0
207 1 6.860861249476685 12.153631158929525 6.788979711974108 0 0 0
169 1 9.682382838698908 9.732176966214654 6.7847840376657595 0 0 0
331 1 12.042173200852226 12.250757839671708 6.723753959898501 0 0 0
296 1 14.726879104062649 9.567571355188234 6.841390638246531 0 0 0
335 1 13.363166244710943 10.978050057981399 8.193940190986275 0 0 0
330 1 14.68483395217693 12.18456952188702 9.594595918533443 0 0 0
462 1 17.441209082018887 12.152927288659267 6.9844042487178015 0 0 0
424 1 20.43040576366758 9.506324234497004 6.923704670050566 0 0 0
463 1 18.90727429264871 10.709724840727528 8.317807192276256 0 0 0
73 1 4.070937402785954 14.904983475779664 6.933475276894093 0 0 0
202 1 5.331031527586126 13.483235949761928 8.103239445635142 0 0 0
201 1 9.488498657699878 14.790681850088886 7.148833332138364 0 0 0
329 1 10.910151813045696 13.513070920991087 8.354924696292915 0 0 0
491 1 14.898073038788604 14.879259554420882 6.95411927388295 0 0 0
457 1 16.099453919040865 13.46615613013731 8.403040659310156 0 0 0
74 1 21.649982902155106 13.556961299117832 8.29299031482517 -1 0 0
456 1 20.106008810574487 14.86333590092238 7.11481861878685 0 0 0
111 1 1.236275655932862 17.54541798727077 6.823784604522288 0 0 0
112 1 2.692449411138393 16.36284637980963 8.252143525516528 0 0 0
239 1 7.045682552933844 17.51123243359579 6.926616747950955 0 0 0
240 1 8.291846374257611 16.213372238954708 8.450498516408969 0 0 0
361 1 12.417151377279938 17.705832898167515 6.951058050357281 0 0 0
362 1 13.58679816416607 16.2985027251339 8.306651830929773 0 0 0
494 1 17.374469885044704 17.56977045740681 6.8020836420133515 0 0 0
495 1 18.850174649864954 16.34180450608307 8.206084602335494 0 0 0
16 1 4.144694226940653 20.384281198017487 7.120684802978098 0 -1 0
234 1 5.5785614608430425 18.825459146730537 8.401991301063882 0 0 0
233 1 9.465888024238177 20.351922982477987 7.030310903083088 0 0 0
364 1 11.014911552349616 19.109542535045453 8.231471656649036 0 0 0
266 1 13.48624613373552 21.746699328822302 8.216473000842235 0 -1 0
385 1 14.912520284137596 20.385425579812104 6.901171983284071 0 -1 0
489 1 16.325825038760573 19.09353781821285 8.375252194898007 0 0 0
106 1 21.53905670718248 18.98374459502794 8.068649183983219 -1 0 0
399 1 18.934186241586094 0.11390696422104085 8.440525145088834 0 0 0
488 1 20.190806359001176 20.366895905937017 6.988491420262667 0 0 0
17 1 2.73498182347688 2.7072644962764927 11.095856622062309 0 0 0
23 1 1.3750687267081332 1.142740417346289 12.255518125797721 0 0 0
11 1 3.989488192984781 1.2990719386027791 9.602297550363398 0 0 0
148 1 5.484365644397577 21.6481961293002 11.06002542594404 0 -1 0
139 1 8.37928320704239 2.790778322029592 11.036734004369142 0 0 0
151 1 6.919715838139397 1.326562459338201 12.353608796343961 0 0 0
241 1 9.423045582997624 1.3989098121982178 9.661884827252731 0 1 0
275 1 10.821653378260924 0.15423070208086742 11.209590851700405 0 0 0
393 1 14.5569009877047 1.4515560769583493 9.526632721615504 0 0 0
268 1 13.408511245132534 2.83637926169556 11.054657057558922 0 0 0
406 1 17.674055235832817 1.2087911905509068 12.275790465094975 0 0 0
394 1 20.237396186948853 1.4004833250849913 9.936751670744998 0 0 0
405 1 19.100777205004796 2.8902509953267774 11.159477074843446 0 0 0
22 1 1.3003201482631161 4.068210829924305 9.898535996369256 0 0 0
180 1 5.501506275962469 5.456441394046902 10.902196022798755 0 0 0
141 1 6.806667483023264 4.131907106422735 9.467843474747783 0 0 0
307 1 10.801583483083856 5.704530888849098 11.030807792498475 0 0 0
265 1 12.02164779769904 4.241169705987849 9.62027340047221 0 0 0
396 1 17.565792893570688 3.9891524569664183 9.618882474994567 0 0 0
272 1 16.437482613608104 5.466839643562391 11.000328204159478 0 0 0
426 1 21.563217544823505 5.353720651365042 10.975487522017016 0 0 0
400 1 20.43775763892109 4.037005633150667 12.46959840982902 0 0 0
54 1 2.7429943917137756 8.067162893312325 10.896794623409235 0 0 0
52 1 1.1958595750217147 6.7747556069196495 12.301585773251368 0 0 0
43 1 4.035085562578644 6.6377207639010605 9.679737980827403 0 0 0
177 1 7.925955646491963 8.130064375887752 11.143916543417273 0 0 0
183 1 6.668448809487871 6.880072103637214 12.5087631303576 0 0 0
182 1 9.361480143638548 7.006268083106111 9.713607906692227 0 0 0
435 1 14.716840603403655 6.670485789509432 9.731175781308368 0 0 0
309 1 13.500466296066497 8.253682299030032 11.0346168442744 0 0 0
431 1 20.260908527411594 6.836650322053439 9.67943637637945 0 0 0
437 1 18.869446069335115 8.167341984261151 10.882739648669856 0 0 0
45 1 1.2520488303881976 9.585523562478258 9.643624685111837 0 0 0
87 1 1.254548241718373 12.229670548442051 12.204481106384613 0 0 0
84 1 21.59377536810434 10.905726952932875 10.957529349269604 -1 0 0
75 1 3.9940161596690986 12.190019879081397 9.526421281952494 0 0 0
212 1 5.265211794646156 10.900962577342733 10.865439012171157 0 0 0
49 1 3.95429149849486 9.48615402134598 12.381559209294565 0 0 0
173 1 6.777236276107378 9.609023510458474 9.58586380267306 0 0 0
215 1 6.671041024548701 12.111941945917064 12.320099555544694 0 0 0
203 1 9.459512509928917 12.296798481319561 9.554178532747637 0 0 0
300 1 12.269060458887168 9.596554248740452 9.596944923338956 0 0 0
339 1 10.703574744393947 10.849606340234894 10.926004585232379 0 0 0
305 1 9.41750678950804 9.488585153848954 12.420157492303852 0 0 0
342 1 12.055339464840129 12.25964919444217 12.277327344586366 0 0 0
304 1 14.930833699998729 9.730799273705056 12.3464612032182 0 0 0
428 1 17.519519063247785 9.420972731535072 9.634093295776722 0 0 0
467 1 16.186377520816244 10.91388604945282 10.877299007630954 0 0 0
471 1 17.57935499317413 12.257215937698238 12.3169455508518 0 0 0
458 1 20.281016713004558 12.08271310717702 9.553984237715758 0 0 0
86 1 2.6897528858858353 13.663867228223275 10.893405707172384 0 0 0
77 1 1.1749580196261837 14.92630666525693 9.545000968180494 0 0 0
81 1 4.273130885680954 14.942692196186902 12.277103266250181 0 0 0
205 1 6.6777726800638595 14.805554832881668 9.604529804142887 0 0 0
214 1 8.108253603696744 13.4196770829796 10.923089687015032 0 0 0
332 1 12.255401548986752 14.92870252071713 9.614390488682952 0 0 0
209 1 9.528092519115823 14.891740827875145 12.299103228378764 0 0 0
341 1 13.497075479089883 13.555688965623833 10.959518301790709 0 0 0
470 1 14.923220503028633 15.0472201971917 12.256882863348164 0 0 0
460 1 17.73224872054701 15.068454859012274 9.728994710248731 0 0 0
469 1 19.104122763825455 13.582327241690638 11.114754861938529 0 0 0
464 1 20.429178873370475 15.03685012611313 12.358597291842402 0 0 0
119 1 1.3055222742146417 17.644900464457848 12.123775624449676 0 0 0
107 1 3.991366699997513 17.60564899848619 9.729461244642497 0 0 0
244 1 5.548815229127831 16.25555322847859 10.96376353348202 0 0 0
235 1 9.569925384162943 17.843441639454305 9.686340639674228 0 0 0
371 1 10.954603433986627 16.409270907695817 10.966688425811068 0 0 0
375 1 12.33834533983703 17.734964257590438 12.361985273447726 0 0 0
499 1 14.958831272268641 17.634843517220954 9.583874620406027 0 0 0
336 1 16.339602861879506 16.401733872569046 10.980444756459052 0 0 0
502 1 17.696320236748182 17.69376847175157 12.364618542532916 0 0 0
116 1 21.49505728871229 16.340535368968347 10.882004539366234 -1 0 0
490 1 20.055692139364638 17.778522759079163 9.574295281478292 0 0 0
118 1 2.68651144454321 18.9565525539913 10.901109112275561 0 0 0
20 1 1.122965621053267 20.15709893148688 9.65997601626494 0 -1 0
113 1 3.9673913718182394 20.42396199896218 12.328720305315334 0 0 0
237 1 6.863961578144386 20.28196314235998 9.675274408833296 0 0 0
369 1 8.20351886224051 19.121620939647222 11.079559005624684 0 0 0
360 1 12.189988867344043 20.591752421226573 9.84056713057493 0 0 0
243 1 9.607051758639015 20.525266944920972 12.469134505740172 0 0 0
373 1 13.670154532603664 19.08891997839749 10.787735474390358 0 0 0
368 1 14.839986715592147 20.26587310972093 12.348736646925582 0 0 0
403 1 16.017947633653836 21.68091830017006 11.05969137169425 0 -1 0
492 1 17.502387177713132 20.49883497120456 9.74760652460466 0 0 0
496 1 21.71185320549752 21.54083018656825 11.059511373735766 0 0 0
501 1 18.93061033349832 19.141821270238857 10.977428768395859 0 0 0
18 1 0.10017229047809621 2.5180279078942287 13.670487788103637 0 0 0
24 1 2.5632244629803616 21.682760198636203 13.816374786417184 0 -1 0
19 1 5.4995673890151195 2.685877097375168 13.651267228450541 0 0 0
156 1 3.924656356074209 1.2879087422555353 14.977432241276842 0 0 0
147 1 9.478904672168758 1.3560815416865033 15.246685797373694 0 0 0
278 1 12.176543953509784 1.5627714510002864 12.562720882465507 0 0 0
145 1 10.810993955493116 2.875885165551627 13.95102348100543 0 0 0
274 1 14.91414494589848 1.3111985457673585 15.027175340472287 0 0 0
401 1 16.36311613473616 2.530574321324444 13.687377406792026 0 0 0
402 1 20.2843989734995 1.3287783639232928 15.092521870447904 0 0 0
407 1 18.99773919493771 21.681928718630974 13.656584673296866 0 -1 0
56 1 2.5256043570936817 5.4026449341092 13.602163525284212 0 0 0
21 1 1.2161226054994823 4.041389454886984 15.00624402979944 0 0 0
146 1 4.1820756295652926 4.105608559614164 12.402271983354417 0 0 0
149 1 6.822422961499403 3.9824627918924715 15.209285930371138 0 0 0
184 1 8.1881095337028 5.563244532204256 13.853708740548802 0 0 0
150 1 9.617485971016638 4.096521204464256 12.445805702469002 0 0 0
273 1 12.383505719404903 4.240505254872017 15.201871244806487 0 0 0
277 1 15.032794692941627 4.009692638624606 12.409696660086666 0 0 0
276 1 13.762920131644144 5.460115211525131 13.668822900847703 0 0 0
404 1 17.764791594240894 4.116145052232123 15.003255230018633 0 0 0
439 1 19.072947511223465 5.533904063922039 13.636941004085791 0 0 0
55 1 21.523610798280963 8.260100085288984 13.454049454278266 -1 0 0
51 1 3.925738462389288 6.593369843159335 15.089129079666188 0 0 0
178 1 5.362687842913759 8.266919945438223 13.976574269284873 0 0 0
311 1 12.231647695168897 6.981878383690271 12.442507702452954 0 0 0
179 1 9.59473786694556 6.943363148622409 15.122457171975181 0 0 0
310 1 10.902727184629466 8.319766433529065 13.79598505873896 0 0 0
306 1 15.005033472554212 6.7494078706458875 15.140525442883284 0 0 0
438 1 17.71569741876798 6.800720362508383 12.392794281437792 0 0 0
433 1 16.282727100208465 8.289666554880677 13.69152803218724 0 0 0
434 1 20.379728269932215 6.825421296339661 15.070424139217465 0 0 0
53 1 1.1767808606814187 9.525670329826001 14.893563158736132 0 0 0
88 1 2.598629046225982 10.990762153713732 13.723735563234277 0 0 0
83 1 3.9878882825318067 12.212560802203512 14.915941633786678 0 0 0
181 1 6.777114774202444 9.597038573131654 15.319891284004525 0 0 0
216 1 8.071833081726588 10.866389510708814 13.866127611947997 0 0 0
308 1 12.264048655728576 9.419130439205757 15.1543181180591 0 0 0
222 1 9.512557075802459 12.103628981683919 15.009263666952927 0 0 0
343 1 13.39830865335297 10.945128225684014 13.84450087962623 0 0 0
475 1 14.91988950635943 12.218519267764556 15.093477319854154 0 0 0
436 1 17.628864483076214 9.480709249833657 15.030236893823938 0 0 0
50 1 20.0579437541817 9.60515528403027 12.274432439190758 -1 0 0
432 1 18.885669131868728 10.92590067589107 13.708420230166146 0 0 0
92 1 20.38802330398874 12.28099535886944 15.147377226054303 -1 0 0
85 1 1.3792327255128727 14.878518997164399 15.12695875499743 0 0 0
210 1 5.5789487812750505 13.526804839681569 13.713710971410348 0 0 0
213 1 6.868214478690636 15.003785394807068 15.14602000983661 0 0 0
211 1 10.629246705790726 13.58117258321804 13.786019309934954 0 0 0
337 1 12.082697743451494 14.896651379661884 15.209724376613291 0 0 0
338 1 16.224022039871954 13.641632783988591 13.634906332451596 0 0 0
466 1 17.796597111489017 14.808555132319094 15.058083859217067 0 0 0
82 1 21.75304960400791 13.763275312941913 13.612535530703054 -1 0 0
120 1 2.7109459442058834 16.259221756235558 13.584323196264009 0 0 0
115 1 4.018437323477391 17.601192429495768 14.79587155690039 0 0 0
246 1 6.894224386360656 17.622934444910527 12.32801363464955 0 0 0
247 1 8.250151152354688 16.301643768897055 13.631657329854955 0 0 0
248 1 9.568100114021435 17.554496279154975 15.146578753934964 0 0 0
340 1 13.574732413450274 16.398484746943033 13.800328050646854 0 0 0
370 1 15.115417749942383 17.62207537998505 15.161120331565442 0 0 0
465 1 19.05646000187741 16.274160842182273 13.697790918436331 0 0 0
503 1 20.275271743391976 17.667830006355 15.030290427847513 0 0 0
117 1 1.3566418356652723 20.16714785515685 15.143507888041531 0 0 0
509 1 0.012176083168952067 18.85752404354239 13.796262881832453 1 0 0
242 1 5.418191835571095 19.137846962696607 13.611247420888795 0 0 0
152 1 8.133059982974373 0.15988787744656818 13.719818638773882 0 0 0
245 1 6.894530697818594 20.40391189107491 15.025118236357914 0 0 0
374 1 10.990721334399588 18.91755040445889 13.83748351521118 0 0 0
372 1 12.442708743170193 20.402806566876876 15.089112926243837 0 0 0
279 1 13.649000876010637 0.035141254019738 13.714825327603965 0 0 0
507 1 16.369551220252166 19.04739124210321 13.783594474799164 0 0 0
497 1 17.679513753925892 20.44584472013449 15.213327362582703 0 0 0
114 1 20.382104921610345 20.198875823076335 12.460791457783921 -1 0 0
30 1 2.544968778783412 2.5688309646355174 16.37711460158411 0 0 0
31 1 1.291291932520486 1.2517432758412659 17.81223269294604 0 0 0
121 1 5.481798693393381 0.01681196307863181 16.371384587123547 0 1 0
158 1 8.092054383673595 2.691716729897596 16.686540522313116 0 0 0
159 1 6.834281658720054 1.3230418199243912 17.9326879294805 0 0 0
286 1 12.14795788895123 1.3496601730034838 17.91102914446506 0 0 0
285 1 13.670123240326124 2.760213141744911 16.421753479273722 0 0 0
414 1 17.56176618102191 1.334255834817787 17.68733545556226 0 0 0
411 1 16.293920449666935 0.032136156285709594 16.368238586035776 0 0 0
413 1 18.7987921904719 2.7536518748394685 16.37415729499247 0 0 0
60 1 21.73634972690222 5.56078257554772 16.53973056902751 -1 0 0
25 1 3.902350682182948 4.171584764491778 17.85315728103838 0 0 0
188 1 5.377535155562236 5.425290614693066 16.40535849159757 0 0 0
153 1 9.400836820873096 4.165020058732546 17.848287493262553 0 0 0
315 1 10.820340609283727 5.53264076600897 16.405425295643795 0 0 0
319 1 15.126633511937623 3.935453602244587 17.7897540083909 0 0 0
443 1 16.354831535144022 5.368914746059284 16.372746158848447 0 0 0
408 1 20.287435360548226 3.982509039251685 17.706664846948133 0 0 0
62 1 2.6006959544742054 8.167717151919717 16.254914474557143 0 0 0
63 1 1.3700765566581068 6.85464216441923 17.756174957599008 0 0 0
190 1 8.285043129725901 8.146089411636037 16.5635456948292 0 0 0
191 1 6.715692264489316 6.862940616501263 17.692151899327648 0 0 0
284 1 12.269879734801428 6.753452472661221 17.792805004687665 0 0 0
318 1 13.640249766653994 8.063417798845371 16.478771093587806 0 0 0
446 1 17.662279317363357 6.863472329193222 17.70678923816192 0 0 0
445 1 19.02403461807086 8.171071062893262 16.389966054906207 0 0 0
95 1 1.496811513934085 12.216521964001853 17.883752255077724 0 0 0
440 1 21.55864910749497 10.853833544212694 16.369824086210187 0 0 0
57 1 3.9076832923480653 9.400127210911862 17.83368288013974 0 0 0
220 1 5.401921463552996 10.785111464294422 16.66762697351262 0 0 0
218 1 6.754618979074034 12.285200644437786 17.86000080059097 0 0 0
185 1 9.53061549194701 9.65267295221341 17.885767176468224 0 0 0
347 1 10.88402605130315 10.953981974323646 16.54107999652406 0 0 0
312 1 14.927704432336986 9.698378361783625 17.916183106466686 0 0 0
478 1 16.359941142310205 10.85718066238754 16.419159502227338 0 0 0
477 1 17.60451987740247 12.120161020554379 18.02146037919287 0 0 0
58 1 20.346629016874587 9.379051289761364 17.871599017574862 -1 0 0
94 1 2.6279660218348173 13.48148467698933 16.411201260873632 0 0 0
89 1 4.111446903131909 14.899315311432714 17.616352757647547 0 0 0
223 1 8.113313612016258 13.443408648046594 16.40088509793341 0 0 0
217 1 9.534863029183077 14.950955660901775 17.856098694912465 0 0 0
350 1 12.176968363845198 12.233371877581824 17.87918879911114 0 0 0
349 1 13.647714132349135 13.53343484880687 16.465918991261912 0 0 0
473 1 14.965714991903369 14.901513641880044 17.85426265289615 0 0 0
472 1 18.98212407330515 13.464432286669238 16.689050872840596 0 0 0
511 1 20.38670878696358 14.870804517737898 17.97210436644097 0 0 0
124 1 1.3251439215670826 17.772874867436823 17.763789863320795 0 0 0
498 1 21.563492209343135 16.27839291992171 16.465237890013263 0 0 0
252 1 5.537436972104996 16.392574033402237 16.266408360306663 0 0 0
255 1 6.912256943966156 17.68264483887063 17.818960735849917 0 0 0
379 1 10.847296578226139 16.31573987918104 16.583932809449163 0 0 0
382 1 12.184007658556792 17.69886939266801 17.90948860838436 0 0 0
468 1 16.404447495703064 16.25601817878449 16.49426869178549 0 0 0
510 1 17.85773071209832 17.598246918552746 17.91119923954705 0 0 0
28 1 21.714951238209622 21.600751599419123 16.434559656834423 -1 -1 0
127 1 2.7483480427483125 18.847983988575134 16.315337412336522 0 0 0
126 1 4.058719844983901 20.291685140994186 17.596049518712217 0 0 0
254 1 8.245249229991199 18.891580707787703 16.437408554501758 0 0 0