LAMMPS (10 Sep 2025)
OMP_NUM_THREADS environment is not set. Defaulting to 1 thread.
  using 1 OpenMP thread(s) per MPI task
Loaded 1 plugins from C:\Users\lmike\AppData\Local\LAMMPS 64-bit 10Sep2025 with GUI\plugins
# LAMMPS input generated from LammpsInputFile with pymatgen v2025.10.7

# STYLES
units metal
atom_style atomic

# SET UP CALCULATION
read_data starting_config.dat
Reading data file ...
  orthogonal box = (0 0 0) to (21.763403 21.763403 21.763403)
  1 by 1 by 1 MPI processor grid
  reading atoms ...
  511 atoms
  read_data CPU = 0.002 seconds
pair_style sw
pair_coeff * * Si.sw Si
Reading sw potential file Si.sw with DATE: 2007-06-11
velocity all create 800 8733347

# CALCULATION PARAMETERS
fix f1 all nvt temp 800.0 800.0 $(100.0*dt)
fix f1 all nvt temp 800.0 800.0 0.10000000000000000555
thermo 100000
thermo_style custom step temp press spcpu cpuremain

# RUN CALC AND WRITE OUTPUTS
dump d1 all custom 100 state_dump id type x y z vx vy vz
run 10000000
Neighbor list info ...
  update: every = 1 steps, delay = 0 steps, check = yes
  max neighbors/atom: 2000, page size: 100000
  master list distance cutoff = 5.77118
  ghost atom cutoff = 5.77118
  binsize = 2.88559, bins = 8 8 8
  1 neighbor lists, perpetual/occasional/extra = 1 0 0
  (1) pair sw, perpetual
      attributes: full, newton on
      pair build: full/bin/atomonly
      stencil: full/bin/3d
      bin: standard
Per MPI rank memory allocation (min/avg/max) = 3.118 | 3.118 | 3.118 Mbytes
   Step          Temp          Press          S/CPU         CPULeft    
         0   800           -11.703926      0              0            
    100000   800.57233     -61.159105      490.12287      20199.017    
    200000   833.99345      293.00516      440.88923      21111.396    
    300000   842.6913       400.68096      431.5622       21422.81     
    400000   798.70994     -245.4277       546.57202      20292.471    
    500000   793.11601      178.87548      560.68176      19453.604    
    600000   814.17354     -24.673374      540.29042      18940.367    
    700000   823.36756      739.63488      537.62745      18533.066    
    800000   812.42991     -342.52419      542.40918      18162.233    
    900000   790.47996     -255.66982      557.83238      17781.298    
   1000000   805.90015     -450.3385       535.36953      17508.391    
   1100000   763.67902      137.38423      555.9808       17195.117    
   1200000   789.45792      195.66755      546.45004      16927.082    
   1300000   794.49594     -464.61447      539.56432      16687.759    
   1400000   789.28697      409.93069      540.96708      16453.197    
   1500000   806.96493     -291.23102      541.48015      16224.269    
   1600000   792.41865     -691.76056      557.11464      15973.664    
   1700000   798.87543      281.38024      536.32514      15765.394    
   1800000   807.42268     -142.87194      538.71929      15555.774    
   1900000   768.10228     -451.87975      551.07978      15330.93     
   2000000   813.62784     -498.33302      530.29625      15138.871    
   2100000   774.9688       252.07859      549.06958      14922.89     
   2200000   787.98529     -511.46388      548.12291      14711.101    
   2300000   841.21071      284.95292      549.39093      14500.455    
   2400000   848.31013      753.38933      561.30655      14279.958    
   2500000   787.34116      729.53294      561.85019      14062.332    
   2600000   769.15622     -244.45676      552.33947      13856.477    
   2700000   807.37923      782.07376      566.00744      13640.64     
   2800000   760.1217      -314.56586      561.26643      13431.437    
   2900000   834.23595      106.19931      548.79953      13234.284    
   3000000   777.09927      13.851252      555.00612      13033.372    
   3100000   715.60031      203.73855      561.04375      12829.481    
   3200000   770.38971      375.60702      553.13722      12632.608    
   3300000   815.15145     -433.39945      538.08273      12446.98     
   3400000   782.80643     -130.91498      549.95951      12253.547    
   3500000   789.26597      97.40569       541.75375      12065.893    
   3600000   744.55307     -1044.3123      552.04283      11872.292    
   3700000   814.50768      397.11856      553.7804       11678.398    
   3800000   823.12652      182.15052      559.31509      11482.288    
   3900000   814.99887     -210.1124       545.86412      11293.958    
   4000000   771.38293     -206.24802      557.83457      11099.988    
   4100000   755.69066      190.62648      559.77438      10905.841    
   4200000   799.74236      204.17304      562.05889      10711.43     
   4300000   749.16844     -34.766553      541.79         10526.609    
   4400000   805.21137     -85.161163      554.41678      10336.449    
   4500000   794.48467      115.15671      552.60832      10147.446    
   4600000   787.51617      78.43403       543.41547      9962.3861    
   4700000   820.01886      76.820313      526.86964      9783.8872    
   4800000   785.49966      12.689738      539.55624      9600.0827    
   4900000   852.99611      496.50654      557.63952      9409.9602    
   5000000   783.07704      6.9092183      536.11419      9227.4696    
   5100000   819.59934     -30.780132      529.79485      9046.9583    
   5200000   786.80263      120.04089      544.90215      8861.2994    
   5300000   776.02771     -786.2176       533.10065      8679.3241    
   5400000   799.22719     -162.0695       540.09625      8495.0714    
   5500000   784.82594      181.57992      549.71072      8308.1364    
   5600000   800.30366      70.190673      559.4921       8118.8819    
   5700000   807.12011     -159.24852      559.88575      7929.9018    
   5800000   789.02943     -500.58937      539.208        7746.2392    
   5900000   761.32472     -440.87453      545.53923      7561.0201    
   6000000   783.13378     -640.40884      552.22573      7374.3852    
   6100000   866.56769      498.6557       555.05584      7187.3418    
   6200000   751.73518     -654.7149       543.77934      7002.8103    
   6300000   788.78663      27.055498      545.37165      6817.9836    
   6400000   826.05527      13.87124       552.75829      6631.8244    
   6500000   801.52032      325.88259      545.3087       6447.1574    
   6600000   754.00643      113.34117      543.65731      6262.8164    
   6700000   802.36348      237.74646      554.57199      6076.7042    
   6800000   782.09157     -145.5856       550.72881      5891.3546    
   6900000   810.04272      152.43735      547.37151      5706.6147    
   7000000   783.78464     -313.35117      545.84105      5522.1529    
   7100000   778.52013     -29.662928      555.96556      5336.3638    
   7200000   793.61108      328.65793      549.17315      5151.6043    
   7300000   807.26821      168.99677      564.24901      4965.1185    
   7400000   784.8083       298.2082       552.40594      4780.2179    
   7500000   780.55516     -190.3753       554.22025      4595.2231    
   7600000   850.55082      679.985        565.21654      4409.2398    
   7700000   851.87774     -78.712905      674.36624      4214.9382    
   7800000   739.53155     -401.17408      658.77855      4022.8061    
   7900000   787.42581     -437.25295      674.34541      3830.7637    
   8000000   820.29393      388.9785       707.00568      3638.1024    
   8100000   779.86614     -24.96431       699.41099      3447.0661    
   8200000   749.3583       42.664376      731.35833      3255.831     
   8300000   816.34669      369.9596       730.53503      3065.9408    
   8400000   839.37865      290.04512      738.18563      2877.0423    
   8500000   784.91376      23.074994      700.61144      2690.6832    
   8600000   788.82908     -34.480409      714.84061      2504.8761    
   8700000   766.83296     -683.49415      721.79922      2319.923     
   8800000   777.13174     -470.51937      715.50462      2136.1909    
   8900000   791.73801     -417.63902      711.33523      1953.5482    
   9000000   824.56369      538.13462      732.61161      1771.3865    
   9100000   813.5315      -64.192286      720.59628      1590.4536    
   9200000   791.16346     -522.56495      726.18736      1410.3442    
   9300000   782.43743      228.88123      721.51909      1231.2138    
   9400000   753.93838      393.3651       717.67639      1052.9932    
   9500000   794.72438     -225.83395      736.02782      875.40831    
   9600000   796.1363      -375.68936      735.28695      698.6983     
   9700000   836.36907      1450.8149      726.38995      522.87916    
   9800000   803.11694     -470.78655      745.42166      347.76691    
   9900000   746.84418     -381.61374      756.27768      173.46268    
  10000000   836.01237      875.79564      763.35681      0            
Loop time of 17303.8 on 1 procs for 10000000 steps with 511 atoms

Performance: 49.931 ns/day, 0.481 hours/ns, 577.908 timesteps/s, 295.311 katom-step/s
99.5% CPU use with 1 MPI tasks x 1 OpenMP threads

MPI task timing breakdown:
Section |  min time  |  avg time  |  max time  |%varavg| %total
---------------------------------------------------------------
Pair    | 17026      | 17026      | 17026      |   0.0 | 98.40
Neigh   | 0.53576    | 0.53576    | 0.53576    |   0.0 |  0.00
Comm    | 44.628     | 44.628     | 44.628     |   0.0 |  0.26
Output  | 149.07     | 149.07     | 149.07     |   0.0 |  0.86
Modify  | 66.671     | 66.671     | 66.671     |   0.0 |  0.39
Other   |            | 16.8       |            |       |  0.10

Nlocal:            511 ave         511 max         511 min
Histogram: 1 0 0 0 0 0 0 0 0 0
Nghost:           1442 ave        1442 max        1442 min
Histogram: 1 0 0 0 0 0 0 0 0 0
Neighs:              0 ave           0 max           0 min
Histogram: 1 0 0 0 0 0 0 0 0 0
FullNghs:        18042 ave       18042 max       18042 min
Histogram: 1 0 0 0 0 0 0 0 0 0

Total # of neighbors = 18042
Ave neighs/atom = 35.307241
Neighbor list builds = 713
Dangerous builds = 0
write_data FINAL_STRUCTURE
System init for write_data ...
Total wall time: 4:48:23
