LAMMPS data file via write_data, version 10 Sep 2025, timestep = 10000000, units = metal

511 atoms
1 atom types

0 21.772397 xlo xhi
0 21.772397 ylo yhi
0 21.772397 zlo zhi

Masses

1 28.085

Atoms # atomic

7 1 1.40798432768442 1.151938986667199 1.282775337711457 0 0 0
6 1 2.6405724442972924 2.5540606800487664 21.65504416900294 0 0 -1
40 1 5.518135184797838 2.4766439026857023 2.8136888436070886 0 0 0
134 1 6.834915863404223 1.3707155163474054 1.3687855172533219 0 0 0
131 1 10.915270269919123 2.7948442740188626 2.682873633777712 0 0 0
259 1 12.193976388306693 1.3341187561542527 1.1548798548254748 0 0 0
389 1 17.810733996842522 1.230288929981315 1.2372027135421855 0 0 0
388 1 16.12571168236553 2.5260157324156003 2.630026095596555 0 0 0
384 1 21.62956232996237 2.4421772777095336 2.674590132708246 0 0 0
35 1 2.610752406162854 5.045843909949321 2.591961139570945 0 0 0
27 1 4.0292996371143905 3.8612695398143626 1.1485712504766874 0 0 1
1 1 5.472392701961831 5.403597461720053 21.717037909449186 0 0 -1
291 1 8.09825740815536 5.482550817690997 2.789250637819559 0 0 0
284 1 9.310049195281014 4.034042718337565 1.5943197120188293 0 0 1
385 1 14.876467571010688 4.1387535622574685 1.3674611192380655 0 0 0
290 1 13.523228390830003 5.308636339885899 2.6846493226165635 0 0 0
423 1 20.392250788065454 3.8481018171302432 1.2995644891660454 0 0 0
58 1 18.908763861378432 5.398674031615561 2.4076784741017003 -1 0 1
38 1 1.151884901475492 6.379994974862262 1.3648334072141668 0 0 0
68 1 2.6161043919101203 7.825603390403426 21.717201346763126 0 0 -1
39 1 0.05564253493372176 8.001921536837594 2.700974722772454 0 0 0
162 1 5.243030528051205 8.027017556423761 2.612465776365226 0 0 0
167 1 6.826656141176636 6.7097984103933 1.272960247640866 0 0 0
166 1 8.358842595021114 7.918708487361571 21.73726672493189 0 0 -1
289 1 10.780417231575475 8.060613029118864 2.723081236707386 0 0 0
294 1 12.171685591218319 6.719631300630081 1.3995076349636069 0 0 0
293 1 13.466395723971964 8.203668266741754 0.09008983098326347 0 0 0
427 1 17.717476755591044 6.776737759113197 1.2708190273285513 0 0 0
422 1 16.400976463830553 8.132156254905112 2.592353046572886 0 0 0
451 1 19.176840798666355 8.10315420773555 21.723150495404397 0 0 -1
72 1 2.622218902107615 10.967213039262782 2.736646448184091 0 0 0
71 1 1.269297433988399 12.244702099288297 1.4935451847898351 0 0 0
33 1 3.8325449893630874 9.41728844356575 1.293549352930231 0 0 0
200 1 7.947674465582261 10.669685573533707 2.7992831077159304 0 0 0
194 1 6.849445312463305 12.07889181861705 1.2892918606328365 0 0 0
161 1 9.494202086725311 9.51049120726255 1.298319496848704 0 0 0
326 1 12.312820325853268 12.343917308651797 1.2207386034981886 0 0 0
288 1 14.96763240951576 9.68456704856857 1.1376267607645727 0 0 0
327 1 13.614211428155023 10.924103430384493 2.4887973340302696 0 0 0
455 1 17.7428061440047 12.4953519322104 1.4260791252210505 0 0 0
44 1 20.387733764050854 9.540339549658025 1.2588455208260125 -1 0 0
79 1 19.08669326742626 11.04746455290308 2.6677808007463146 -1 0 0
96 1 21.581440658418177 10.896494596746386 21.687212347000738 -1 0 0
70 1 2.6083385924663793 13.5724759072864 0.02972825592305855 0 0 0
65 1 5.573555634279725 13.548308665251085 2.826308212723575 0 0 0
228 1 4.300890208502024 14.824784118162366 1.2820307525286216 0 0 0
232 1 9.57092451749702 14.877237764441599 1.1924940418108714 0 0 0
321 1 10.818659345060123 13.564854143772743 2.7272994715528713 0 0 0
359 1 14.97981848806488 15.025029286597254 1.3830611030111686 0 0 0
320 1 16.172821905187377 13.652261852013691 2.807040289136031 0 0 0
66 1 21.632343114609522 13.671536418076066 2.645110587277874 -1 0 0
448 1 20.411338431830604 15.16220273203096 1.3593623102850194 0 0 0
98 1 1.2558241720645225 17.39243024573072 1.310031238339192 0 0 0
104 1 2.756241640874666 16.1384065407932 2.527660251321758 0 0 0
221 1 5.5101968097957235 16.16571755289861 21.5857231894486 0 0 0
123 1 6.763011655710974 17.479775356107073 1.259006707718682 0 0 1
231 1 8.316541528935973 16.263954590114622 2.701314768950383 0 0 0
357 1 12.39532817191768 17.83879277718169 1.030936088076217 0 0 0
354 1 13.596980181822994 16.407226014808526 2.7691328753646465 0 0 0
486 1 17.67923839090938 17.636374740096688 1.3286232521343033 0 0 0
487 1 18.894417189090586 16.268718616342625 2.8311813483077413 0 0 0
100 1 0.08475055262983844 16.20018770197466 21.49277672440927 0 0 -1
2 1 2.8605201190381653 21.47913208391589 2.613525468316709 0 -1 0
101 1 21.76484658109981 18.68472441319501 2.585407176925157 -1 0 0
97 1 5.592293302519238 18.886679159737874 2.6220721796432795 0 0 0
102 1 4.216289238896801 20.158853168503896 1.1254411944221598 0 0 0
227 1 8.250276867891143 21.674371513696546 2.5853273259864684 0 0 0
225 1 9.675501509959886 20.374019351987922 1.2381589929508867 0 0 0
358 1 11.061699467510152 18.918235231881148 2.483061096892631 0 0 0
387 1 13.555054418341687 21.57308208257355 2.562604658116556 0 -1 0
390 1 14.950960187547548 20.379260663688793 1.2992174207051115 0 -1 0
481 1 16.23019819420721 18.959281633410228 2.849557528498912 0 0 0
484 1 19.018522268294927 21.52917820246033 2.628143246266931 0 0 0
391 1 20.537530125998366 20.166718499595383 1.3590801344687249 0 -1 0
14 1 2.790842268288223 2.6066611757032323 5.3806735829761285 0 0 0
3 1 4.238520098117755 1.0501004542780328 4.15789314540588 0 0 0
130 1 8.225920468856037 2.586916550673789 5.419882293226598 0 0 0
136 1 9.536739613645663 1.1283831057595317 3.981495434699358 0 0 0
258 1 14.910872567187385 1.065947669939921 3.86143654558232 0 0 0
142 1 13.711132250875488 2.486902350877627 5.227813882173128 0 0 0
397 1 18.991468744722976 2.5101469297060035 5.126698676964875 0 0 0
386 1 20.44289033387991 1.0361618465433617 3.9624512293631207 0 0 0
15 1 0.16448563515752213 21.656376432857986 5.411366548495091 0 -1 0
5 1 1.3336814177871101 3.861915239030526 3.9738278268389147 0 0 0
47 1 21.706255464365093 5.335347744594924 5.352937958232196 -1 0 0
133 1 5.403641153168094 5.464096296916663 5.472650182085428 0 0 0
135 1 6.74082399569796 4.0102894253903605 4.177054566475526 0 0 0
260 1 10.914544723987666 5.367456464619585 5.287966988841188 0 0 0
270 1 12.309939667097419 4.011471307373334 4.105521488857404 0 0 0
430 1 17.49811767857431 3.995230178410805 3.779679286524275 0 0 0
264 1 16.20503391544625 5.533012349491323 5.285593737380133 0 0 0
76 1 2.597802479161873 8.00078470921181 5.41213772897417 0 0 0
172 1 3.8042938507647723 6.655788145766903 3.8327996763263044 0 0 0
163 1 8.238829702556943 8.250111655666588 5.6335040297936825 0 0 0
168 1 9.430606097334003 6.783178442588201 4.146357534337056 0 0 0
417 1 14.845827543298128 6.8211057852478385 3.9387986750125488 0 0 0
302 1 13.593597549023452 8.111357489730738 5.348346398744587 0 0 0
36 1 20.303371714348074 6.616143321083692 3.9667306201142054 -1 0 0
418 1 19.049873906748466 8.164707143769562 5.276556920478403 0 0 0
416 1 1.339726952239733 9.541917735485326 4.044708630272435 1 0 0
74 1 21.714131308251883 10.927781152824608 5.446675171930729 -1 0 0
204 1 5.464811954478875 10.519137421856668 5.3333233362698 0 0 0
67 1 4.268038716357741 12.075845281245925 4.199470002513017 0 0 0
165 1 6.736829819363101 9.103226531566165 3.9936080866093984 0 0 0
292 1 12.316354414966495 9.462065125088385 3.9898511424155294 0 0 0
195 1 9.6122200714992 11.944966979767555 4.007085013713454 0 0 0
331 1 11.039306747722879 10.75985217775828 5.34289982149624 0 0 0
449 1 14.907537505931767 12.34793817023463 4.109857621577007 0 0 0
420 1 17.633716696789083 9.5469805231966 3.925973411295062 0 0 0
322 1 16.149634967636377 10.700636590727955 5.334470578521865 0 0 0
450 1 20.361408048914218 12.270051289818786 4.1352942944954565 0 0 0
69 1 1.466044213923047 14.92115225593652 4.049944275208158 0 0 0
78 1 2.8789295182009838 13.456187828947096 5.454462341864764 0 0 0
206 1 8.386028309470982 13.452230298210823 5.251975817611938 0 0 0
230 1 6.95435682933791 14.956788427974722 4.2004528513219155 0 0 0
333 1 12.14095143445951 14.943901192029026 3.955152510256726 0 0 0
328 1 13.657793246598414 13.587597905439527 5.4326388233305 0 0 0
494 1 17.52279568763859 14.965718630357271 4.243553712087007 0 0 0
462 1 18.779507650870066 13.544285642945093 5.409924751431464 0 0 0
461 1 21.766905228133382 16.09176222924797 5.4451446484256145 0 0 0
197 1 5.728453670061706 16.293519192805878 5.617206610221189 0 0 0
99 1 4.044168860713108 17.650966198319303 4.118947304832556 0 0 0
363 1 9.687031155998007 17.69452572312345 4.071477532646299 0 0 0
324 1 10.869225490995401 16.266079100143656 5.449316457681658 0 0 0
495 1 14.887791972891648 17.64519917367375 4.302735687373353 0 0 0
491 1 16.23561359400018 16.23051844760424 5.715738996295149 0 0 0
108 1 20.463251575421 17.616021104529146 4.149395266356517 -1 0 0
110 1 2.7365727040320857 18.969211977314234 5.334218606003875 0 0 0
12 1 1.3393257194180745 20.18051657633121 3.9386672881641016 0 -1 0
226 1 5.552950575097137 21.531663342389674 5.366676236530408 0 0 0
238 1 8.347803211954776 18.969510478669996 5.402897849284773 0 0 0
233 1 6.956028818099817 20.32714667695185 4.029779271308443 0 0 0
263 1 10.80351765808276 21.67840186653607 5.433889574605587 0 -1 0
353 1 12.176885380885384 20.385582797837916 3.9310943921982706 0 0 0
356 1 13.480751002375268 19.089705854372113 5.488085361712621 0 0 0
360 1 16.446004588071247 0.037708840947189515 5.3320574722231475 0 1 0
395 1 17.751198592475546 20.288651226013346 4.009585459692534 0 -1 0
482 1 18.98086017842377 18.887103664342412 5.368631360796952 0 0 0
16 1 1.5235097076959716 1.3001068615720897 6.629220078227294 0 0 0
10 1 0.045811861345524556 2.5333677189045765 8.121544344901091 0 0 0
140 1 5.634746310579562 2.4812903643727715 8.077127248303713 0 0 0
229 1 6.845250373413137 1.1826909081911379 6.70542454736514 0 1 0
265 1 10.883571854746625 2.4569805453923217 8.039459072036617 0 0 0
271 1 12.390353730477761 1.3357503896883571 6.669191804611006 0 0 0
398 1 17.914130815925528 1.274783016209091 6.728428017586335 0 0 0
393 1 16.374703022016586 2.607023857746344 7.959617039139516 0 0 0
399 1 19.102362486649817 21.591461399338204 7.96213655625282 0 -1 0
394 1 20.3662271636215 1.2386041281033942 9.323437695215143 0 0 0
48 1 2.7189530861603926 5.347348735513178 8.004315073119622 0 0 0
9 1 4.155514444273935 3.9471293894298514 6.821296333685325 0 0 0
176 1 8.144347208506533 5.374785169889804 8.058153126867861 0 0 0
143 1 9.552030188514074 4.038003131986794 6.73892154505821 0 0 0
269 1 15.05423780461404 3.935856286149853 6.534850463504305 0 0 0
299 1 13.653131698330771 5.247351872090338 7.985762564745107 0 0 0
396 1 17.677745115234192 4.013953733290199 9.33165970379453 0 0 0
431 1 19.19344990944034 5.439836589359909 8.043711901916605 0 0 0
392 1 20.391166168080083 3.881672072505333 6.618833624474749 0 0 0
46 1 1.1919597186009205 6.697663008232491 6.810331766162122 0 0 0
42 1 0.004002106060962804 8.166704502910957 7.948332909892928 0 0 0
170 1 5.511388494258637 8.112187348560338 8.262111641483441 0 0 0
175 1 6.788633098782112 6.849794399566709 6.7688653279671875 0 0 0
169 1 10.965228594300289 7.98616701921694 8.110718050089373 0 0 0
137 1 12.296355310251371 6.755908680325758 6.599456264164351 0 0 0
298 1 16.479109561705307 8.071570327716199 7.799305078623955 0 0 0
429 1 17.809214463863565 6.759717572716898 6.529263127801241 0 0 0
41 1 2.85672975886784 10.84365042786553 8.276370829188611 0 0 0
77 1 1.510185824981996 12.063958691662583 6.8207994720056 0 0 0
37 1 3.989666745305556 9.437065005320715 6.742290632938496 0 0 0
208 1 8.312577049261842 10.729507892451846 8.026477325677 0 0 0
207 1 7.025465562854711 12.011069017073499 6.558589245861222 0 0 0
174 1 9.72078405979734 9.512031504376932 6.789035321481281 0 0 0
334 1 12.274630502696958 12.277765796726342 6.693816779619796 0 0 0
214 1 9.600348125746132 12.084176565382753 9.703207254787403 0 0 0
301 1 14.800274985652033 9.404354167257797 6.741037566956488 0 0 0
335 1 13.475776377563806 10.675780092071511 8.057599333508639 0 0 0
459 1 17.576142387883515 12.074717190731521 6.711485847231551 0 0 0
424 1 20.258714671376403 9.518550622979005 6.833991618495232 0 0 0
463 1 19.11943256315713 10.985330248995918 8.21663984472491 0 0 0
458 1 20.553687353550185 12.177037345623372 9.695638031697056 0 0 0
73 1 4.215168172862413 14.840355954189212 6.786224453826498 0 0 0
202 1 5.632407728155436 13.286299204154684 8.072848394267897 0 0 0
366 1 9.587209890163596 14.89368962375024 6.801754752243687 0 0 0
329 1 10.865518257887366 13.438710259941633 8.168906787752558 0 0 0
457 1 14.987660019337959 14.856423682127415 6.921397056624037 0 0 0
330 1 16.278064954381158 13.417405863615793 8.217457634419276 0 0 0
86 1 21.68486037044165 13.38311070324956 8.082219408597151 -1 0 0
452 1 20.313164166629747 14.736327362340134 6.688028516883097 0 0 0
111 1 1.4341802217452542 17.567416216354772 6.769136775609504 0 0 0
236 1 2.757108009224646 16.147067495990235 8.154639985529002 0 0 0
239 1 6.978720947583588 17.7449740925773 6.871307406825593 0 0 0
201 1 8.211801324402975 16.349533317334565 8.297191459514467 0 0 0
365 1 12.300054690188782 17.594274389225372 6.808624657022044 0 0 0
367 1 13.544542692958013 16.19794461326983 8.294192164691106 0 0 0
493 1 17.74153360669753 17.517506753472837 6.930195790838301 0 0 0
456 1 19.02917731686711 16.03719336909689 8.18907076857284 0 0 0
105 1 2.7481798690455794 21.6320312260677 8.041524706733636 0 0 0
106 1 21.67286408468974 18.970577124213197 8.204327028052823 -1 0 0
234 1 5.5613909607283825 18.9216893842924 8.246013326611106 0 0 0
237 1 4.066701975005437 20.210077190938744 6.753796237706561 0 0 0
144 1 8.111230628476045 21.661743010457634 7.964799995075156 0 -1 0
267 1 9.460036970476084 20.37098251158936 6.737292809601914 0 -1 0
361 1 10.966433888230823 19.095943284614787 8.277028811101907 0 0 0
489 1 13.613386640829354 0.18199008601290245 8.130933221853777 0 1 0
362 1 14.982014001394496 20.47640078629305 6.820194033248586 0 0 0
499 1 16.31028768259987 18.994958816929135 8.052870753842525 0 0 0
488 1 20.4546550034166 20.263676099604343 6.7904730070042065 0 0 0
22 1 2.726625791456649 2.611422299269854 10.755010330502655 0 0 0
23 1 1.3123560716072138 1.2787143895225817 12.038898853976894 0 0 0
11 1 4.085514114118152 1.1141533818736897 9.410866760350167 0 0 0
138 1 8.30406568658618 2.6134261253575626 10.768277429801858 0 0 0
150 1 6.913315990841584 1.3280905302949386 12.234789173923266 0 0 0
139 1 9.5036116547958 1.1838702158783883 9.37942214822313 0 0 0
279 1 12.306910131426967 1.3505748091570176 12.144961823764417 0 0 0
266 1 15.049900957224725 1.3127111846205592 9.403619851760496 0 0 0
277 1 13.644600522541097 2.6197004879221857 10.815883920294205 0 0 0
401 1 17.48410268336481 1.1607192052102442 12.020077680464071 0 0 0
406 1 16.196577850151865 21.771774692918946 10.722368770508998 0 -1 0
405 1 18.806386004594106 2.430478979106674 10.622865256883333 0 0 0
20 1 21.737951117440176 21.689851619453606 10.806467389492626 -1 -1 0
13 1 1.4351328952681344 3.975320086729803 9.411556130522023 0 0 0
52 1 21.648203946363154 5.365417284647864 10.6995973279785 -1 0 0
17 1 5.448972409999178 5.449011957869401 10.783867925989997 0 0 0
146 1 4.124702607398197 3.9259391774791705 12.141199415296477 0 0 0
141 1 6.853326070812653 3.9686489147817574 9.570381296119336 0 0 0
268 1 12.300412222463112 3.717489515373687 9.374725162621457 0 0 0
145 1 9.543414164819925 3.9302219637063964 12.21932488160304 0 0 0
307 1 10.944936136424424 5.14761214332797 10.886727975910711 0 0 0
272 1 15.019333618785835 4.119776388142259 12.333433690644743 0 0 0
435 1 16.337540027563918 5.570142356393482 10.807063553999042 0 0 0
400 1 20.216887744790423 3.7290439258481514 12.052836066586867 0 0 0
54 1 2.7016313952352546 8.160660127067437 10.804371826311678 0 0 0
55 1 1.2530931352270276 6.686186757704404 11.98504377087651 0 0 0
43 1 4.074200890304533 6.710885549545974 9.370560236839545 0 0 0
171 1 8.31357010967827 8.166137262487153 10.914346443794702 0 0 0
180 1 6.811369403374876 6.7628376444484894 12.222342669896586 0 0 0
297 1 9.671444045510006 6.739306804641428 9.496733658886601 0 0 0
310 1 12.283069304643012 6.794872348050039 12.17594114575529 0 0 0
303 1 15.073604937819184 6.842667441715627 9.186108237823554 0 0 0
309 1 13.745928563618051 8.07230511347179 10.83416827580945 0 0 0
304 1 14.975248069879163 9.377323481127704 12.341712520798886 0 0 0
437 1 17.52081597276193 6.717828546063359 12.31542382444417 0 0 0
296 1 17.689352878479216 9.427146914043753 9.402283805615399 0 0 0
426 1 20.332010300271186 6.859793859985774 9.376295816036675 0 0 0
471 1 18.96711691569384 8.1276783707499 10.745307261767334 0 0 0
45 1 1.3739300645007613 9.436293660931861 9.543884110210824 0 0 0
87 1 1.3437216133595473 12.249572858520072 12.099123337295264 0 0 0
80 1 4.252922752068367 12.128224163424305 9.580002790424427 0 0 0
212 1 4.244284035215757 9.545511537260918 12.243663763320987 0 0 0
215 1 5.678059415626168 10.800662307438172 10.92115817118063 0 0 0
173 1 6.944961654524918 9.36557825704895 9.399765187041734 0 0 0
216 1 6.803316959660087 12.199700143201644 12.44177486501189 0 0 0
182 1 9.51633875221212 9.401724658209805 12.3606130418093 0 0 0
177 1 11.022598252303537 10.742135544872818 11.18883318857712 0 0 0
203 1 12.529702367356386 12.020903484760698 12.341883199981053 0 0 0
339 1 12.318509289916777 9.38187306469139 9.61982039392181 0 0 0
300 1 15.02356585382304 11.876479830597434 9.553855216475833 0 0 0
425 1 16.3913332683826 10.774788714881925 10.856772799310443 0 0 0
428 1 17.652958338002737 12.16340046606762 12.285448165550596 0 0 0
84 1 0.06774874569816092 10.741101754264086 10.994435145898814 0 0 0
432 1 20.266487816192207 9.437339760234456 12.15813778174412 0 0 0
112 1 1.2147468121331066 14.887255100273443 9.416181141564937 0 0 0
75 1 2.6637452968392856 13.553081221348071 10.752854671260087 0 0 0
81 1 4.093683002235642 14.957431869366985 12.206657548437551 0 0 0
240 1 6.829154582454276 14.81206000358827 9.562226360745722 0 0 0
209 1 8.197453511883039 13.508307045903097 11.167006780582224 0 0 0
248 1 9.645854871156798 14.825420298231403 12.399340511345338 0 0 0
332 1 12.297522759158474 14.854176682389094 9.5758184540302 0 0 0
341 1 13.569193105499938 13.416405822306627 10.9406738422499 0 0 0
465 1 14.812174477627128 15.052613742577224 12.241236093579486 0 0 0
469 1 17.51534730629497 14.900869586582228 9.609340317531204 0 0 0
467 1 18.97226279954063 13.568999499554334 10.856631068169856 0 0 0
464 1 20.547537647611623 14.868385203473226 11.963667647943247 0 0 0
119 1 1.4295656675151225 17.77577135569029 12.317161283098583 0 0 0
244 1 4.078563331428206 17.533441347341228 9.535217163628333 0 0 0
205 1 5.649134602709953 16.297936290841214 10.900300189229936 0 0 0
241 1 6.872061307654602 17.63926298225235 12.405643996810044 0 0 0
235 1 9.485116589846564 17.80325841040933 9.671702579278739 0 0 0
371 1 10.643376915373558 16.232023900862877 10.89646246593726 0 0 0
336 1 12.075520011596295 17.663106801557984 12.176472412323687 0 0 0
368 1 14.993588476792981 17.81023547119985 9.512633347951732 0 0 0
373 1 16.267395867823346 16.43520815268285 10.97829456560683 0 0 0
460 1 17.5899120657537 17.646083405753878 12.536432867190497 0 0 0
116 1 0.09767112271234879 16.395990286172225 10.89036257492606 0 0 0
490 1 20.26742698776143 17.636123026191825 9.486346550794387 0 0 0
109 1 1.2401111356143397 20.492066604235205 9.336428709072617 0 0 0
107 1 2.7216176923836333 19.143361189686505 10.8407425558307 0 0 0
148 1 5.54378624450237 0.07120949582636982 10.848183518125765 0 0 0
118 1 3.992560178515953 20.570337264602134 12.291986322359023 0 0 0
246 1 6.890405357522479 20.427312678542425 9.430120142249686 0 0 0
147 1 8.16655174462576 19.12935154276557 10.879088454462375 0 -1 0
275 1 10.952391034151548 21.75665776394344 10.926484073904511 0 -1 0
369 1 9.479264491259833 20.486645403370215 12.141690347185149 0 0 0
364 1 12.333064400676445 20.57248075959977 9.473385365248257 0 0 0
375 1 13.463757931421624 19.008805826981444 10.746102258114608 0 0 0
403 1 14.790418516122443 20.3678802908733 12.085366541489181 0 -1 0
492 1 17.51574331902283 20.452077213055748 9.490519965590034 0 0 0
501 1 18.744807687549756 18.948809983178332 10.861285521762658 0 0 0
496 1 20.300314375668588 20.31229973529809 12.16273519526931 0 0 0
30 1 2.619178498996475 0.059987776534062384 13.406949077959974 0 0 0
24 1 5.628799612278811 2.8547940178442692 13.407818023661358 0 0 0
28 1 4.253021941736739 1.3774325489322228 14.71950405510812 0 0 0
374 1 9.598466984711571 1.2256642098642982 15.02999463566327 0 1 0
278 1 10.840355280685745 2.592029373202391 13.604978956398886 0 0 0
285 1 14.951152862093508 1.3481322504135855 14.885035465884943 0 0 0
274 1 16.428931494945523 2.5739971196189795 13.72389010676733 0 0 0
56 1 0.003939593424547638 2.6320643626039297 13.486582313358422 0 0 0
407 1 20.33914769696632 1.4210046590004175 14.936008458031614 0 0 0
500 1 19.085345893550283 21.70386994907027 13.553600434036131 0 0 0
21 1 1.204513054016907 3.649627471648267 15.03002420283636 0 0 0
51 1 2.6580645748211023 5.151120261770952 13.604577187406473 0 0 0
149 1 6.879557190119045 4.043113081879567 14.950515436227398 0 0 0
184 1 8.292060950322352 5.274909182181673 13.490614005472327 0 0 0
276 1 12.29476728566039 4.015436427685851 14.896571071996691 0 0 0
311 1 13.392548851683202 5.329359019696907 13.492765611706407 0 0 0
404 1 17.76203281863183 4.070774081416174 14.93176279737403 0 0 0
439 1 19.07718013469126 5.392437687460155 13.439422794591058 0 0 0
49 1 5.403807621245661 8.055463255797443 13.499816360003237 0 0 0
183 1 3.9872294975939013 6.844893471107753 14.738418800448828 0 0 0
179 1 9.639811921227164 6.744048998623986 14.806907493814405 0 0 0
305 1 11.075399035749928 8.247153227731042 13.566648477493692 0 0 0
306 1 14.76044448019074 6.743553832126593 15.067365165856916 0 0 0
438 1 16.156423459837804 7.917808784053173 13.570243407054203 0 0 0
50 1 21.684149967523595 7.934323514795832 13.518837569148083 -1 0 0
60 1 20.467222790296656 6.514975782471687 15.101380556286044 -1 0 0
53 1 1.2683192425314294 9.316119973439747 14.959639618386198 0 0 0
88 1 2.567804874357493 10.752779382608448 13.572603940302992 0 0 0
83 1 4.052424433899067 12.247674846608192 14.851206775471391 0 0 0
181 1 6.636263813391383 9.40497369279677 14.914204679916168 0 0 0
211 1 8.14423632679198 10.692395043864522 13.72108433221484 0 0 0
308 1 12.317271404623614 9.673009359678705 15.181835799651884 0 0 0
342 1 9.547071146387275 12.285749351337552 14.981626359508873 0 0 0
343 1 13.791826012978964 10.948827557848428 13.90808122884348 0 0 0
433 1 17.243964266296732 9.727325481114528 14.672533161797777 0 0 0
436 1 18.986916013308303 10.76544044721716 13.551062467392363 0 0 0
466 1 20.383436087158582 12.207197405918706 14.81932516298001 0 0 0
85 1 1.2975232233592697 15.044499765406295 14.911388255726784 0 0 0
210 1 5.487053745349183 13.600803882599008 13.603864736901004 0 0 0
213 1 6.9007021115799 14.8072692438874 14.98838375580496 0 0 0
337 1 11.282001276589732 13.496645079835066 13.72025924848469 0 0 0
338 1 14.652352694808148 12.613599554664159 15.294888270260335 0 0 0
349 1 12.535600764960964 14.720435747147857 15.2858091900516 0 0 0
470 1 16.166062361891154 13.737342957281395 13.55493624838642 0 0 0
468 1 17.719401369908454 15.001177957104975 14.848667883160502 0 0 0
82 1 0.115839100382928 13.590359638693712 13.538673144805596 0 0 0
120 1 2.8768451503434767 16.350215778954315 13.55095609063919 0 0 0
115 1 4.273617081918161 17.629174571746614 14.935445577632404 0 0 0
247 1 8.307216870086863 16.18753927184456 13.768684112819976 0 0 0
249 1 9.649860306079665 17.639421879496734 14.981672743445658 0 0 0
340 1 13.415796410080949 16.173473319184183 13.765604157900022 0 0 0
370 1 14.8266900259111 17.65592738443178 14.951708661821117 0 0 0
503 1 19.27214353235572 16.26834408803944 13.494542461809933 0 0 0
498 1 20.388479474915844 17.640203711000826 14.989756255875228 0 0 0
113 1 1.4452140017883133 20.381808451763 15.043391123588025 0 0 0
242 1 5.433948032854409 19.081994435224406 13.689234996465103 0 0 0
151 1 8.326302036165243 21.6900633180901 13.63191749566904 0 -1 0
245 1 6.994362714825508 20.19383553690923 14.97076090622994 0 0 0
152 1 10.812513205744166 19.078252707053917 13.488853811152502 0 -1 0
381 1 12.068869542784707 20.53046889449392 14.710993099344329 0 0 0
372 1 13.57774671888252 21.762367088448563 13.524437275827541 0 0 0
502 1 16.206842755069776 19.131198573336754 13.660021517579736 0 0 0
497 1 17.53934982216248 20.47303054725816 14.928596852677352 0 0 0
114 1 0.00728166501135874 19.031846201348852 13.498672942548943 0 0 0
402 1 2.8645915164743623 2.419909632876763 16.158800952006214 1 0 0
117 1 1.4040777564979945 1.266697282023941 17.574127112209887 0 1 0
273 1 8.249892790668142 2.724740539271576 16.236159631038355 0 0 0
156 1 6.991462866490652 1.4928794014991567 17.508455503676608 0 0 0
286 1 12.307085814068536 1.477429110309751 17.57093690369709 0 0 0
280 1 13.569773989955829 2.702860083501947 16.211506853311914 0 0 0
261 1 17.562715574870346 1.2351063824340502 17.687801231085157 0 0 -1
414 1 16.27635643926045 0.030472751014678015 16.23401511410225 0 0 0
413 1 18.960895929198944 2.679096956811096 16.438640616191083 0 0 0
64 1 0.09451544534450762 5.174767161008508 16.366902368655445 0 0 0
25 1 3.881317268263816 3.9708865961757307 17.470608329270537 0 0 0
188 1 5.290452665892844 5.441056249212827 16.190927208505844 0 0 0
153 1 9.475238005140271 4.040945377725683 17.569217914996795 0 0 0
315 1 10.89079482106324 5.368206415166872 16.218091295082655 0 0 0
443 1 14.808117153776973 3.9487987995668066 17.801400971110883 0 0 0
446 1 16.147874025792195 5.515841066351253 16.326800022106678 0 0 0
408 1 20.3257783805615 4.08077486737991 17.57749240954788 0 0 0
62 1 1.1934268923206597 6.686864417292919 17.583735394158456 0 0 0
178 1 2.7190629525053227 8.042646159404995 16.290068056189053 0 0 0
191 1 6.638482814009552 6.701272074208555 17.628726763761495 0 0 0
190 1 8.187188603324225 8.015061531792082 16.26332805462979 0 0 0
313 1 12.108293235362712 6.814964817692687 17.703131014842956 0 0 0
317 1 13.594938109264506 8.180493408935797 16.391789719154783 0 0 0
409 1 17.647513419856782 6.7971909225137415 17.703477554033366 0 0 0
434 1 18.65544981101246 8.242030202365358 15.973116732292185 0 0 0
57 1 3.9406284236363365 9.346187882832234 17.79788715172254 0 0 0
220 1 5.188669155406863 10.791542042777383 16.33940578313674 0 0 0
223 1 6.8455706416006725 12.07481836207571 17.7387062158917 0 0 0
185 1 9.431977369132689 9.688771339951828 17.63146821049541 0 0 0
347 1 10.962573294363468 10.982733239904038 16.275509468545934 0 0 0
475 1 14.97502392215715 9.588089775357941 17.67824957905541 0 0 0
478 1 16.107902356505047 11.080208058133092 16.350344426647712 0 0 0
479 1 17.56396352522639 12.357979178341841 17.75499439552677 0 0 0
445 1 20.289160161352026 9.374206888586716 17.537835117088918 0 0 0
92 1 21.73920037442749 10.744193282510999 16.149618201184683 -1 0 0
95 1 1.2809861786001515 12.143767025850693 17.44011417668885 0 0 0
94 1 2.6357283055139074 13.603624982729146 16.13879977093982 0 0 0
218 1 3.920062404989616 14.854986094943778 17.65540453660732 0 0 0
222 1 8.155043475563971 13.658058775449746 16.578102837961847 0 0 0
379 1 9.621390484724293 14.948718673548106 17.768433171222707 0 0 0
350 1 12.48157793493509 12.635276189799018 17.35502495896703 0 0 0
344 1 14.493588894292003 14.756189683257974 17.167830179974633 0 0 0
472 1 20.372118047102333 14.882460122025668 17.50434825825026 0 0 0
477 1 19.091837044674392 13.481670647875816 16.215971933405207 0 0 0
127 1 1.288846215999526 17.72904739394341 17.70877720823953 0 0 0
124 1 0.05381349726818998 16.332368162048056 16.38153842630257 0 0 0
89 1 5.494085542242716 16.210866225124835 16.52305570977208 0 0 0
252 1 6.947302154701531 17.604954802378924 17.830849414442863 0 0 0
254 1 10.845462097141294 16.342603145845015 16.298225017087088 0 0 0
382 1 12.175912330707995 17.79609939837238 17.510659924462598 0 0 0
507 1 16.217142969509478 16.310809686600454 16.243324259347727 0 0 0
510 1 17.82497614901331 17.60443751735032 17.41875390122017 0 0 0
126 1 2.8563405393636843 18.93460681950959 16.418551075724412 0 0 0
18 1 21.688838010333118 21.75383001074058 16.28096139046017 -1 -1 0
19 1 5.668664604947647 0.07350574448566505 16.054298797848332 0 0 0
121 1 4.327822403011776 20.511058375574503 17.473235915571518 0 0 0
255 1 8.241363233105902 18.877255228998866 16.365944962072383 0 0 0
243 1 10.92477709956291 0.06941675024816263 16.31069862992337 0 1 0
283 1 9.573768025673221 20.3062514273506 17.59161077773817 0 -1 0
376 1 13.44250853987715 19.105344017040913 16.335493122394197 0 0 0
411 1 15.027767304916228 20.382064722151075 17.600062327995083 0 -1 0
509 1 19.050710135392315 19.13811351672662 16.320543312592893 0 0 0
504 1 20.419487368566696 20.468853738374786 17.779576326923845 0 0 0
31 1 21.732971689263803 2.748481609818058 19.00514562686293 -1 0 0
8 1 5.685895089946363 21.57612407541658 21.68596607360302 0 -1 -1
125 1 4.242279256948593 1.20844943429015 20.258674909044977 0 1 0
158 1 5.390441106045524 2.7486494204590213 18.86638944289651 0 0 0
129 1 8.157480177132697 2.7889572419069317 0.014482487792172094 0 0 0
159 1 8.259614389235443 0.07613602019960422 18.72283806161394 0 0 0
155 1 10.801473667190022 21.74355102093427 21.551522660906574 0 -1 0
160 1 9.564062555343007 1.5470629433318839 20.149815445252408 0 0 0
281 1 10.900282717818813 2.8903554960185347 18.757061646068188 0 0 0
257 1 13.554766278862955 2.876409634393804 0.016592529454200644 0 0 0
295 1 14.744787233637128 1.3697498555336454 20.397303214823022 0 0 -1