LAMMPS (10 Sep 2025)
OMP_NUM_THREADS environment is not set. Defaulting to 1 thread.
  using 1 OpenMP thread(s) per MPI task
Loaded 1 plugins from C:\Users\lmike\AppData\Local\LAMMPS 64-bit 10Sep2025 with GUI\plugins
# LAMMPS input generated from LammpsInputFile with pymatgen v2025.10.7

# STYLES
units metal
atom_style atomic

# SET UP CALCULATION
read_data starting_config.dat
Reading data file ...
  orthogonal box = (0 0 0) to (21.772397 21.772397 21.772397)
  1 by 1 by 1 MPI processor grid
  reading atoms ...
  511 atoms
  read_data CPU = 0.002 seconds
pair_style sw
pair_coeff * * Si.sw Si
Reading sw potential file Si.sw with DATE: 2007-06-11
velocity all create 900 4246292

# CALCULATION PARAMETERS
fix f1 all nvt temp 900.0 900.0 $(100.0*dt)
fix f1 all nvt temp 900.0 900.0 0.10000000000000000555
thermo 100000
thermo_style custom step temp press spcpu cpuremain

# RUN CALC AND WRITE OUTPUTS
dump d1 all custom 100 state_dump id type x y z vx vy vz
run 10000000
Neighbor list info ...
  update: every = 1 steps, delay = 0 steps, check = yes
  max neighbors/atom: 2000, page size: 100000
  master list distance cutoff = 5.77118
  ghost atom cutoff = 5.77118
  binsize = 2.88559, bins = 8 8 8
  1 neighbor lists, perpetual/occasional/extra = 1 0 0
  (1) pair sw, perpetual
      attributes: full, newton on
      pair build: full/bin/atomonly
      stencil: full/bin/3d
      bin: standard
Per MPI rank memory allocation (min/avg/max) = 3.118 | 3.118 | 3.118 Mbytes
   Step          Temp          Press          S/CPU         CPULeft    
         0   900           -566.35708      0              0            
    100000   898.48783     -355.84818      449.27938      22035.287    
    200000   951.39852     -380.90801      421.41345      22533.89     
    300000   966.91718      379.13843      445.92184      22120.198    
    400000   909.83174      309.22676      542.85095      20840.219    
    500000   835.50835     -606.25879      528.03468      20096.756    
    600000   915.96125      48.142751      525.01053      19555.076    
    700000   904.50595     -388.40119      535.44221      19064.44     
    800000   878.11145      51.890565      518.21509      18721.171    
    900000   882.44619     -606.02816      530.6827       18365.463    
   1000000   886.39252     -367.60671      520.78562      18075.438    
   1100000   916.87302     -377.54835      526.62912      17785.995    
   1200000   868.59021     -299.28322      538.75177      17481.81     
   1300000   948.02471      177.82777      531.23081      17213.454    
   1400000   899.71849     -70.673443      531.60366      16955.732    
   1500000   884.39601      241.34396      534.8805       16700.761    
   1600000   876.01383     -298.03515      543.07818      16439.475    
   1700000   946.3659      -12.763093      540.01479      16192.366    
   1800000   949.48436      782.68136      538.52275      15954.475    
   1900000   908.63821     -1104.9103      531.9971       15731.789    
   2000000   850.75666     -634.54858      525.14681      15522.383    
   2100000   841.27693     -601.14136      524.84369      15315.198    
   2200000   955.70504      32.479885      540.77791      15089.623    
   2300000   872.09696     -142.71489      532.64925      14877.03     
   2400000   925.95659     -546.94492      538.77261      14659.752    
   2500000   948.79243     -172.04288      531.32142      14452.816    
   2600000   868.02174     -149.59015      535.2349       14243.404    
   2700000   929.04822     -866.83496      547.33108      14024.5      
   2800000   899.7911      -407.2318       548.71628      13806.996    
   2900000   880.09877     -875.24593      550.42799      13590.537    
   3000000   886.65519     -698.34804      557.87018      13370.741    
   3100000   922.83482     -619.51591      544.49571      13163.361    
   3200000   910.84627     -1026.0933      543.86116      12957.919    
   3300000   893.41736     -374.26804      548.29042      12750.768    
   3400000   906.70556     -255.13002      534.62131      12554.127    
   3500000   895.33087     -833.14471      541.58459      12353.567    
   3600000   872.60866     -678.41059      553.02836      12147.099    
   3700000   917.92016      2.8621134      529.54891      11955.669    
   3800000   887.94067      407.59842      531.52333      11763.23     
   3900000   845.96722     -643.53741      523.896        11575.297    
   4000000   900.80406     -537.90247      533.83856      11381.883    
   4100000   935.06644     -75.955747      535.54116      11187.91     
   4200000   875.24116     -139.59929      527.35766      10998.283    
   4300000   909.48344     -407.12126      545.1367       10800.458    
   4400000   892.51805     -612.73126      542.35094      10604.486    
   4500000   871.42945     -662.44159      547.86557      10406.761    
   4600000   900.77489     -1175.7336      544.04281      10211.203    
   4700000   905.47658     -308.60835      532.6514       10020.577    
   4800000   878.13797     -970.87984      532.40428      9830.1658    
   4900000   898.7488      -44.23186       537.91923      9637.8558    
   5000000   912.76527     -304.24093      546.3026       9442.9494    
   5100000   918.73573     -858.44026      535.80656      9251.9532    
   5200000   845.83773     -1039.5693      553.18497      9055.7126    
   5300000   914.91266      451.79707      531.9562       8866.4531    
   5400000   821.3921      -1181.745       553.79209      8670.9266    
   5500000   916.59143      41.896601      548.31866      8477.4188    
   5600000   930.28568      284.99497      541.35328      8286.1522    
   5700000   893.62192     -971.11875      537.03374      8096.2361    
   5800000   832.12085     -730.48658      539.40692      7905.8546    
   5900000   894.56347     -641.24498      536.71955      7716.2874    
   6000000   875.21564     -503.06748      527.85932      7528.9134    
   6100000   913.87213     -513.51908      540.72188      7338.5904    
   6200000   889.39815      118.99794      545.69288      7147.4086    
   6300000   882.3463      -266.00704      542.44833      6957.1222    
   6400000   910.71004      118.4499       535.26545      6768.4128    
   6500000   923.14454     -734.20173      545.46356      6577.8807    
   6600000   890.68383     -237.91702      548.04404      6387.1222    
   6700000   925.76245     -164.74593      526.89832      6200.2179    
   6800000   940.69879     -567.35742      538.76334      6011.2619    
   6900000   887.6155      -303.36704      535.97708      5822.8363    
   7000000   928.07077     -432.36434      527.66514      5635.7232    
   7100000   902.11823      103.06368      535.22008      5447.4498    
   7200000   891.53765     -900.22714      535.90412      5259.1235    
   7300000   896.9275       76.830329      528.90227      5071.7581    
   7400000   930.68129     -128.18022      540.10793      4882.9684    
   7500000   879.95016     -424.6331       632.60071      4685.2523    
   7600000   930.00802      206.00336      646.53752      4487.5033    
   7700000   892.81262     -444.64864      658.71261      4290.0192    
   7800000   870.61907     -967.38535      678.27796      4092.4712    
   7900000   871.20392     -597.9845       699.2899       3895.0143    
   8000000   916.8377      -200.15086      713.44553      3698.2094    
   8100000   946.42097      36.803481      717.3688       3502.6232    
   8200000   912.19852      57.690225      719.42665      3308.32      
   8300000   840.91573     -766.17324      699.59142      3116.1565    
   8400000   867.98873     -813.89425      698.11795      2925.2225    
   8500000   934.14972     -53.879369      721.05776      2734.6065    
   8600000   908.37215     -136.15561      703.338        2545.7669    
   8700000   863.33562     -637.48478      705.87106      2357.9238    
   8800000   911.26695     -330.12985      711.94368      2170.9653    
   8900000   850.78242     -927.86598      708.78326      1985.1291    
   9000000   899.47187     -1238.2028      709.40611      1800.2735    
   9100000   892.40753     -751.00349      699.66134      1616.5769    
   9200000   968.92236      76.003929      706.9307       1433.6387    
   9300000   932.60903     -315.25128      709.67737      1251.5514    
   9400000   874.9238      -286.62524      723.14081      1070.1727    
   9500000   865.90301     -1112.4348      711.67495      889.81859    
   9600000   905.36557     -333.70016      737.40169      710.09018    
   9700000   892.97326     -492.10014      730.14685      531.31309    
   9800000   960.89797     -131.87628      736.44635      353.36552    
   9900000   908.43243     -1107.0025      792.99755      176.17186    
  10000000   892.93017     -189.45838      806.59733      0            
Loop time of 17565 on 1 procs for 10000000 steps with 511 atoms

Performance: 49.189 ns/day, 0.488 hours/ns, 569.314 timesteps/s, 290.920 katom-step/s
99.6% CPU use with 1 MPI tasks x 1 OpenMP threads

MPI task timing breakdown:
Section |  min time  |  avg time  |  max time  |%varavg| %total
---------------------------------------------------------------
Pair    | 17289      | 17289      | 17289      |   0.0 | 98.43
Neigh   | 1.1632     | 1.1632     | 1.1632     |   0.0 |  0.01
Comm    | 44.519     | 44.519     | 44.519     |   0.0 |  0.25
Output  | 147.88     | 147.88     | 147.88     |   0.0 |  0.84
Modify  | 65.589     | 65.589     | 65.589     |   0.0 |  0.37
Other   |            | 16.68      |            |       |  0.09

Nlocal:            511 ave         511 max         511 min
Histogram: 1 0 0 0 0 0 0 0 0 0
Nghost:           1444 ave        1444 max        1444 min
Histogram: 1 0 0 0 0 0 0 0 0 0
Neighs:              0 ave           0 max           0 min
Histogram: 1 0 0 0 0 0 0 0 0 0
FullNghs:        18072 ave       18072 max       18072 min
Histogram: 1 0 0 0 0 0 0 0 0 0

Total # of neighbors = 18072
Ave neighs/atom = 35.365949
Neighbor list builds = 1541
Dangerous builds = 0
write_data FINAL_STRUCTURE
System init for write_data ...
Total wall time: 4:52:45
