LAMMPS data file via write_data, version 10 Sep 2025, timestep = 10000000, units = metal

502 atoms
1 atom types

0 21.754625 xlo xhi
0 21.754625 ylo yhi
0 21.754625 zlo zhi

Masses

1 28.085

Atoms # atomic

6 1 1.0887733384117946 1.6240032754600613 1.7887383743035645 0 0 0
5 1 2.47228434798121 2.8708770557102836 0.15705269854191528 0 0 0
7 1 2.8411334256507876 0.22411305270100834 2.8041844243926075 0 0 0
1 1 5.273274876969103 2.813773916617947 2.8701805807771907 0 0 0
126 1 5.387172106384808 0.18064544777821073 0.06351421948310285 0 0 0
129 1 6.694454370793947 1.34869230606003 1.4838207033964403 0 0 0
128 1 8.118255282809553 2.7408576242400438 0.13720559527240178 0 0 0
124 1 10.823642012114693 2.592431111655725 2.751053376132072 0 0 0
253 1 12.369230111336927 1.4405410703779489 1.2091168872744724 0 0 0
254 1 13.695640021905882 0.10483699958489553 2.872036389413348 0 0 0
381 1 17.545363909437857 1.5096083539181593 1.5212623963310175 0 0 0
376 1 16.377312789875 2.8401265087829968 2.9124933105233346 0 0 0
3 1 0.020475355405910278 0.2126512400671671 0.18681249577914188 0 0 0
382 1 19.198993360393693 0.16426343450240458 2.754563390533482 0 0 0
4 1 2.553534881534088 5.555458095980726 2.8721846955106214 0 0 0
33 1 21.54877278190769 5.458485489401037 0.3051125781121226 -1 0 0
37 1 3.909530826625065 4.199474748868203 1.4175619409600686 0 0 0
156 1 5.350485958950533 5.202788439161861 21.567442741450286 0 0 -1
127 1 8.16963171296719 5.4921366029877925 2.806323106851485 0 0 0
160 1 9.459966657447954 4.041915096080068 1.4580535608201213 0 0 0
248 1 14.988909225925047 4.137231401781163 1.421354150191201 0 0 0
286 1 13.503804999716667 5.53175985201546 2.6396802399900055 0 0 0
410 1 16.432736248520353 5.633528096204555 0.19853430742936565 0 0 0
375 1 20.7094795354004 3.7446232010655147 1.7501502768828068 0 0 0
414 1 19.308681812629633 5.521626272386535 2.6167454853792744 0 0 0
36 1 1.2230474587724711 6.914433128494041 1.4486539998748686 0 0 0
35 1 2.6981036576947885 7.992189049835602 0.04293598043682815 0 0 0
32 1 5.575471255146651 8.003729704166815 2.643296282310033 0 0 0
159 1 6.808185587726523 6.616990092275183 1.1397946101474714 0 0 0
158 1 8.240317711653814 8.233388931529426 21.753890383471134 0 0 -1
280 1 10.917601940768714 8.294517882665078 2.8201189635517037 0 0 0
285 1 12.120402727862755 6.85588571217212 1.4216253349672994 0 0 0
284 1 13.651419891548661 8.167871137761228 0.06260178690528993 0 0 0
413 1 17.691065911841974 6.91054238461173 1.5577063508285647 0 0 0
408 1 16.399849998107936 8.286785484406884 2.9602442876393473 0 0 0
412 1 19.040931642200093 8.038526201377383 0.11537572053166463 0 0 0
66 1 1.2713001841787042 12.185047229772486 1.557139246208668 0 0 0
67 1 2.7747404758775875 10.830956249846528 2.7939126504608955 0 0 0
31 1 3.960615475446411 9.363538685500687 1.4171172412445099 0 0 0
187 1 5.405128547782789 10.80205293400487 0.10026526167983 0 0 0
191 1 8.080483122437295 10.948824253646643 2.8449296669929818 0 0 0
190 1 6.823406124569805 12.166991310830966 1.3096539375005873 0 0 0
154 1 9.436304796089708 9.613456160921412 1.5385016115019294 0 0 0
317 1 12.221049100245978 12.246489510281583 1.4584343264432758 0 0 0
279 1 14.93932721290111 9.514794623769479 1.411407420785229 0 0 0
318 1 13.5635679933606 10.943226335743443 2.806203318359344 0 0 0
445 1 17.577022771968124 12.305122533272927 1.346176291616659 0 0 0
407 1 20.28097125309323 9.42631412280734 1.6260586353294226 0 0 0
446 1 19.031826130026868 11.043350685535927 2.794222252332587 0 0 0
65 1 2.5907711256014267 13.53062659608674 0.09086752157033526 0 0 0
64 1 21.657798935947323 13.471284950553477 2.862747435212757 -1 0 0
61 1 3.9866053641151855 14.955862179496746 1.3569166846522036 0 0 0
185 1 5.3447872726160535 13.661934136895933 2.724373844593644 0 0 0
189 1 8.050077797362544 13.727020638559484 21.724729655206175 0 0 -1
184 1 9.566234129195713 14.841173576975034 1.4434133453648552 0 0 0
312 1 10.805133852079303 13.54418283386763 2.8900877219050787 0 0 0
311 1 14.837025925895382 15.00062080730843 1.4795143716213652 0 0 0
316 1 13.548968678784039 13.543006055931745 0.09480058919581068 0 0 0
440 1 16.352552894794357 13.600902957911678 2.637324582236923 0 0 0
439 1 20.310328432182 15.068402491631932 1.4679837328673484 0 0 0
444 1 18.98700570849664 13.572095749198184 21.745289611672455 0 0 -1
98 1 1.3618236095936695 17.611339217004293 1.3600142694277073 0 0 0
99 1 2.788067725459646 16.485697384917394 2.729727623113933 0 0 0
95 1 0.010544195601213323 16.27773051572846 0.169409689415572 0 0 0
222 1 6.668393403211028 17.675358370683792 1.331459839731024 0 0 0
223 1 8.167020317025344 16.33655058471822 2.6832431657985167 0 0 0
349 1 12.05218408941239 17.829059752989366 1.4688612119970503 0 0 0
346 1 10.803019639817173 16.208503307739182 0.027695586296283988 0 0 0
350 1 13.509767537136794 16.21029033129255 2.874785416637996 0 0 0
477 1 17.637273695017157 17.706087473667797 1.4615387516011829 0 0 0
474 1 16.290534232138935 16.25944582587748 21.704155925666996 0 0 -1
478 1 18.945848419940678 16.34923096473442 2.8328355180125624 0 0 0
97 1 2.7420255698853673 19.000349783152686 21.713436503182212 0 0 -1
92 1 3.9085137190548997 20.496393392771175 1.3384651176802498 0 0 0
217 1 5.396439681156898 19.123770795089683 2.5601588931501835 0 0 0
221 1 8.089662279505236 19.05931900107781 21.724312820261122 0 0 -1
216 1 9.348695136408525 20.59075982817617 1.2621987786215205 0 0 0
344 1 10.587522053001466 19.109033386604914 2.813385335522365 0 0 0
343 1 14.843715597863929 20.383875476294204 1.2814282666917083 0 0 0
348 1 13.445968546475045 19.052887045174536 0.10984979956886172 0 0 0
472 1 16.258999185873982 19.08685157953057 2.749548272996578 0 0 0
378 1 16.393524976400435 21.68201690792394 0.0949764279848632 0 -1 0
93 1 0.1510679513453539 19.00993179406821 2.7096860429290888 0 0 0
471 1 20.396540720174887 20.465640902503345 1.4027067101627322 0 0 0
476 1 18.959073713885896 18.971358832791424 0.08102679037871667 0 0 0
2 1 3.987038186922244 1.7587719831193331 4.4583097019828895 0 0 0
133 1 5.349398373312743 0.11864195875823098 5.625899122546552 0 0 0
130 1 8.078804142257919 0.055633038412402545 2.8393631427604937 0 0 0
135 1 8.189443793327646 2.817162601313987 5.515871170853895 0 0 0
125 1 9.495434234121724 1.3541953467951162 4.216369434182449 0 0 0
258 1 10.963414216809657 0.047979788915923534 5.519759407346003 0 0 0
249 1 15.09867547002816 1.4125334415914537 4.335904757826123 0 0 0
260 1 13.566762223068833 2.7191815117187446 5.473547302029517 0 0 0
386 1 16.42190443898035 21.746977984763234 5.60127035329044 0 -1 0
377 1 20.586735984607806 1.8442973758743808 3.562068098315401 0 0 0
10 1 21.63792822974217 21.75177022526364 4.978311095036898 -1 -1 0
388 1 19.350150173040237 3.0381764006370564 5.407750176745678 0 0 0
163 1 5.370067107291469 5.4080818041164695 5.553577077592018 0 0 0
13 1 3.817033759400241 3.6595480456515967 6.348161801283182 0 0 0
12 1 6.825438440486116 4.202391815280165 4.198911831039108 0 0 0
290 1 10.818593439028003 5.469158894975771 5.5402888604422875 0 0 0
251 1 12.032373409006665 4.183762902122532 4.134552858655684 0 0 0
379 1 17.916569561100196 4.16322617290161 4.092451556447267 0 0 0
418 1 16.459306731269535 5.391412320186763 5.447139635917027 0 0 0
409 1 21.698805947835194 8.239458862290943 3.0522467924524217 0 0 0
75 1 3.3121886988307514 8.32576245002022 5.673926935815832 0 0 0
42 1 4.185268735109849 6.7912792793393635 4.087362029049484 0 0 0
165 1 8.176761121211026 8.167653578995854 5.494847235961146 0 0 0
155 1 9.603235922289842 6.773809249301064 4.234270837373786 0 0 0
281 1 14.892420460827866 6.817485923406855 4.063698231037862 0 0 0
292 1 13.656827916085696 8.109788761974047 5.475737910579399 0 0 0
40 1 20.454444154051682 6.685565176279487 4.51961658908065 -1 0 0
420 1 19.130817967569392 8.283544361430835 5.674860382934704 0 0 0
34 1 1.3876176666686173 9.622239379488251 4.456731832240008 0 0 0
71 1 0.2627460529691698 11.07557930646824 5.891496798601931 0 0 0
195 1 5.244534350608077 10.361284890325955 5.659914353544919 0 0 0
62 1 4.242255262405844 12.100489794506576 4.202154579641917 0 0 0
157 1 6.78227681558451 9.425155519757563 4.046702682488746 0 0 0
186 1 9.516254466322 12.183831947317952 4.06563661345786 0 0 0
283 1 12.254580627744694 9.461423686343458 4.128613695130061 0 0 0
322 1 10.917015251548174 10.852957699645325 5.517530025466939 0 0 0
313 1 14.9848316728676 12.254457584167632 4.121961908865446 0 0 0
411 1 17.90904601742673 9.611445941093585 4.135773537753667 0 0 0
450 1 16.333319946803293 10.722014285332886 5.429024872707514 0 0 0
441 1 20.395649271343142 12.149920413329555 4.348137319315833 0 0 0
103 1 1.4024083884548668 15.024745191943024 4.096674635056216 0 0 0
73 1 2.6699358313959523 13.60264176357784 5.396602791594365 0 0 0
188 1 6.844535519490522 14.917240430050411 4.0426063826884855 0 0 0
197 1 8.156383024106038 13.646765253526057 5.343686602817644 0 0 0
315 1 12.116757316825082 14.957057464960611 4.352495048767126 0 0 0
324 1 13.656512728543694 13.542416366265421 5.5668744081231 0 0 0
443 1 17.606369180164442 14.97165422061945 4.199331375577705 0 0 0
452 1 19.06672593867232 13.814547907316237 5.528357444618182 0 0 0
94 1 4.049748147382819 17.8831910144703 4.103655531919021 0 0 0
227 1 5.545816931028005 16.40013115858851 5.394304317750931 0 0 0
218 1 9.379465987029432 17.579941480308996 4.121565339985652 0 0 0
354 1 10.599745517955062 16.390266419766203 5.563777616968535 0 0 0
345 1 14.946253539266763 17.587054698674216 4.211506937539109 0 0 0
482 1 16.306445078405297 16.236960004574037 5.517547359308853 0 0 0
106 1 0.018042340898336562 16.366669921442693 5.39291932364443 0 0 0
473 1 20.376996027533224 17.722518494381113 3.981876914263924 0 0 0
96 1 1.5333745401128478 20.442247086445008 4.052295548272228 0 0 0
105 1 2.8310644922297152 19.15912918149374 5.6644640168781635 0 0 0
220 1 6.595482460904452 20.538336768781168 4.205747018130302 0 0 0
229 1 8.182777141913167 19.181838772021113 5.276152554162345 0 0 0
347 1 12.38053553784602 20.402706461144696 4.1477856612624295 0 0 0
356 1 13.676848834868897 19.061856143898094 5.622437800741778 0 0 0
475 1 17.761099551384163 20.548652610089214 4.131545667520224 0 0 0
484 1 18.96140270436553 19.21120276089155 5.331370937414368 0 0 0
8 1 5.1607748032476755 2.5881564578603564 7.9821128163044675 0 0 0
9 1 3.6051795273402503 1.027385265029235 9.206665336205607 0 0 0
136 1 6.803433100379296 1.4992160153426861 6.884625781787922 0 0 0
137 1 8.132175992751016 0.0406841298859664 8.196006537953252 0 0 0
256 1 10.867064064146378 2.715981178215474 8.280316624261573 0 0 0
261 1 12.298515857688582 1.3403100101141887 6.838944928509811 0 0 0
262 1 13.559509806549833 21.688516622097392 8.2784896837883 0 -1 0
389 1 17.973699939309732 1.5455129547733408 6.830326809732014 0 0 0
384 1 16.377789318022952 2.7066446102103976 8.215465568268362 0 0 0
390 1 19.42910089641098 0.30905063757793044 8.072185278200864 0 0 0
44 1 1.4339670507177344 4.641950920151606 7.138422726933571 0 0 0
11 1 0.8098673322663548 3.623251615145686 9.336110707945386 0 0 0
167 1 8.070418138302621 5.4855301323634995 8.277357156237546 0 0 0
134 1 6.487024908176686 4.0796407936053845 9.451399509838025 0 0 0
131 1 9.560263236322635 4.166568078309545 7.010230110620616 0 0 0
255 1 15.046696006264977 4.015193812453169 6.762237414352589 0 0 0
294 1 13.486749494421527 5.428812260586545 8.040157357908159 0 0 0
383 1 20.840418058963948 4.951136616118422 6.192714420280157 0 0 0
422 1 19.24617749885837 5.466491673228799 8.080139590357474 0 0 0
43 1 1.8115849340190284 7.194170755142142 7.388507211016265 0 0 0
41 1 0.3755318351658591 8.539891584200147 8.882933905826276 0 0 0
38 1 5.214972814763395 8.25092791781642 7.5819268753000415 0 0 0
166 1 6.748121540874374 6.765720462983442 6.743792180860525 0 0 0
288 1 10.80711825680743 8.169549667537156 8.184437331040103 0 0 0
293 1 12.055015398609937 6.895036344167554 6.842553520172269 0 0 0
416 1 16.419771101111284 7.9954057675988155 8.25435894827079 0 0 0
421 1 17.767818852409945 6.77342142513409 6.829111105020854 0 0 0
74 1 1.8358252367274523 12.382162841268329 7.3096720504154735 0 0 0
70 1 3.685238451613298 12.416673270401448 9.206878051409982 0 0 0
199 1 8.215799944703077 10.903190302324601 8.250273687846086 0 0 0
198 1 6.837232043214924 12.054022956844113 6.735999314384432 0 0 0
161 1 9.542621669579129 9.547234498329967 6.862505359807195 0 0 0
325 1 12.371028008653909 12.11647085056009 6.960574821137012 0 0 0
287 1 15.097836775035427 9.39053120831643 6.974887831328202 0 0 0
326 1 13.679459756216668 10.842237145687037 8.172227083549586 0 0 0
453 1 17.734443408825523 12.348259439615363 6.6582280983340665 0 0 0
415 1 20.576574299667143 9.604491739346651 7.110038651665774 0 0 0
454 1 19.005945227731633 11.00879894475729 8.247792910236056 0 0 0
69 1 0.04575457450555542 13.557549476420172 8.292664007288947 0 0 0
193 1 5.322585023516729 13.570947285978372 8.029113045120262 0 0 0
68 1 4.141329714028521 15.038847033165116 6.592491840994033 0 0 0
192 1 9.402029366787652 14.864743957552024 6.811615682484013 0 0 0
320 1 10.903835145168133 13.506603520756947 8.101781829467757 0 0 0
319 1 14.949892311022325 14.902312032597376 7.006723376932831 0 0 0
448 1 16.406861206742708 13.528619441743004 8.143705090133944 0 0 0
447 1 20.49160067569626 15.003093616423538 6.833806634389477 0 0 0
107 1 2.757751925645248 16.25504678122793 8.168215075114631 0 0 0
101 1 1.3937922673517453 17.72445548579566 6.898134519209434 0 0 0
230 1 6.8314822750514335 17.79707733197574 6.79091621462377 0 0 0
231 1 8.182035470897553 16.37817940355104 8.183407781542309 0 0 0
357 1 12.234512825896337 17.572364016288205 7.036192821168829 0 0 0
358 1 13.75754757052407 16.32443358689219 8.375079639814398 0 0 0
485 1 17.565879088397363 17.852131800374256 6.783906036964668 0 0 0
486 1 18.970316387731486 16.56478288528245 8.028979993038893 0 0 0
104 1 0.15112966816270207 19.206184106954563 8.147922887761078 0 0 0
100 1 3.8799075807031285 20.717475436281127 7.255066503435011 0 0 0
225 1 5.2676651220236375 19.135319466835305 8.163764343316657 0 0 0
224 1 9.50968819749616 20.419148253206284 6.76728805381302 0 0 0
352 1 10.872851142143974 19.112469431425406 8.245281561977992 0 0 0
351 1 15.125510689289923 20.377872407587095 6.913850224683775 0 0 0
480 1 16.61579408596878 19.16050923408218 8.294763855789354 0 0 0
479 1 20.527125429769935 20.422662305878607 6.596218900762085 0 0 0
20 1 2.5361263177452575 2.6311562132646857 10.760074894993913 0 0 0
21 1 1.2486312554074557 1.1954497796317014 12.10850287273758 0 0 0
18 1 0.15278468571667972 21.740996268740084 10.54611624083912 0 -1 0
143 1 8.050063072412463 2.8555656767575437 10.781594540849515 0 0 0
144 1 6.812415523586702 1.3847047863237323 12.018434943493245 0 0 0
132 1 9.510642328140523 1.3484295094663281 9.633791772124079 0 0 0
269 1 12.092381533440692 1.4375900048286658 12.292858501988803 0 0 0
257 1 14.9629882633866 1.2936496297790279 9.559169563868997 0 0 0
268 1 13.549092007472375 2.665983520203552 10.936601613084735 0 0 0
397 1 17.67799228167411 1.466965657358212 12.172410598915171 0 0 0
394 1 16.423532270843058 21.699870427699206 11.029569567376917 0 -1 0
385 1 20.84097007555956 1.8074245903947588 9.540456104358231 0 0 0
396 1 19.011234825849318 2.8224127349273402 10.857137201834448 0 0 0
48 1 21.629298445626652 5.368702405259622 10.854991464111015 -1 0 0
15 1 4.053601764719025 4.049046789553178 12.001716116598635 0 0 0
171 1 4.980242451725401 5.631505799025393 10.536698060019356 0 0 0
138 1 9.473543574413684 4.171314809608205 12.299934094402357 0 0 0
259 1 12.236002689050705 4.143354983479295 9.601818092096007 0 0 0
298 1 10.803728358421846 5.480211745294237 10.88504491542295 0 0 0
263 1 14.83780699581094 4.124716524542197 12.274205604475931 0 0 0
387 1 17.713663099221424 4.136480473987301 9.4842756868505 0 0 0
426 1 16.322606341838153 5.315336101003294 10.813732165079639 0 0 0
391 1 20.376214950066284 4.06909678036781 12.291297783604753 0 0 0
50 1 2.2814700784457336 8.55244855964541 10.785295551550432 0 0 0
51 1 1.2781539244688753 6.99056625835726 12.204734885748712 0 0 0
39 1 3.4597833998113923 7.116721838965569 9.185666810000212 0 0 0
173 1 7.846867045437638 8.263423031735295 10.664335333946985 0 0 0
174 1 6.438385288807407 6.90582578516822 11.856396879119714 0 0 0
162 1 9.424193938708264 6.727671941056612 9.597583832132038 0 0 0
301 1 12.146087715768878 6.912078943827107 12.305979110946469 0 0 0
289 1 14.915215278955893 6.6578728480975204 9.4949923901509 0 0 0
300 1 13.683513030587653 8.205606645849205 10.91994129953925 0 0 0
429 1 17.605331552776438 6.818550610954819 12.288818931459092 0 0 0
417 1 20.35741752623302 6.889858237236084 9.541126897656257 0 0 0
428 1 19.03745397572445 8.14869555451418 10.903157290999482 0 0 0
79 1 0.0014327496386575328 10.51792692323676 10.81902308460278 0 0 0
82 1 1.149632376106085 12.144627376667852 12.163432947526188 0 0 0
45 1 3.8425629896304856 9.670712886917288 12.122186978246932 0 0 0
203 1 5.162975679618557 11.112150141635931 10.58586187921161 0 0 0
164 1 6.5271958763014215 9.71087069724663 9.20144575127598 0 0 0
206 1 6.540491153356415 12.387263386743042 12.098655510219162 0 0 0
168 1 9.362557830107361 9.445446892534303 12.13287733041811 0 0 0
194 1 9.530088524782238 12.186910532815272 9.418408963771936 0 0 0
291 1 12.24268266346175 9.477144767232025 9.409383129994687 0 0 0
330 1 10.926416050071838 10.840116164065597 10.911753290721927 0 0 0
333 1 11.96948426902531 12.278011876221667 12.25304070167426 0 0 0
295 1 14.80961743186727 9.77223568535583 12.44597211262183 0 0 0
321 1 14.964343251393913 12.144538657359053 9.632092292072741 0 0 0
419 1 17.696657079181755 9.508458064455839 9.60353011999893 0 0 0
458 1 16.28269347021917 10.766376106028593 11.011529886111694 0 0 0
423 1 20.477403499563607 9.29557454430893 12.445031063693623 0 0 0
449 1 20.476637484463577 12.246281785982527 9.700102680416963 0 0 0
72 1 1.1669661870147634 15.06497376610523 9.54275812363844 0 0 0
81 1 2.6882765727927143 13.599686936550292 10.961901584868285 0 0 0
76 1 3.904210348313817 15.13898297255742 12.423157884399375 0 0 0
196 1 6.7524386422911995 14.827568285303268 9.403324374737785 0 0 0
205 1 8.037706718750972 13.520018728314092 10.678305545341438 0 0 0
200 1 9.323908708534308 15.04538764611061 12.261133019627781 0 0 0
323 1 12.249729449321448 15.024509719353073 9.51443937472285 0 0 0
332 1 13.467869532289868 13.584313799580688 10.842654733245118 0 0 0
327 1 14.945558997167259 14.86015112097839 12.18930338154432 0 0 0
461 1 17.698400920699246 12.202319171354835 12.290536201278734 0 0 0
451 1 17.65911403552419 15.17800139005933 9.528821395281692 0 0 0
460 1 18.948535563815494 13.728827153208803 10.789019804765664 0 0 0
455 1 20.29404608391635 15.055725013994463 12.230606465462797 0 0 0
114 1 1.35508026077058 17.68524254522472 12.222240318822012 0 0 0
102 1 3.9001545432307663 17.71545793815279 9.520327518456982 0 0 0
235 1 5.339209378491388 16.353040627194325 10.773159284764667 0 0 0
238 1 6.733542870820302 17.613131717231518 12.248511667263072 0 0 0
226 1 9.380455743838107 17.825237197120078 9.46403653464181 0 0 0
362 1 10.799265399633772 16.45211924376127 10.932557446030543 0 0 0
365 1 12.316640301366016 17.74382893609873 12.313767643623004 0 0 0
353 1 15.1545494885413 17.731872434860385 9.721420770301814 0 0 0
490 1 16.3537632493013 16.353661504062227 10.993963661003582 0 0 0
493 1 17.742743083194817 17.69503094914141 12.168029700659119 0 0 0
111 1 21.610973912841672 16.46503413724059 10.87271048984386 -1 0 0
481 1 20.360048806548317 17.80464483024239 9.556787229885849 0 0 0
14 1 1.8669303487593631 20.6904643311568 9.246440873895397 0 -1 0
113 1 2.7859228129431766 19.251555595046664 10.919246630309454 0 0 0
141 1 5.308381251279135 0.019305187488711795 10.735876793343525 0 0 0
108 1 4.188437255536885 20.49957514970018 12.23850326577766 0 0 0
228 1 6.762875595459002 20.418964388947913 9.430471710823394 0 0 0
237 1 8.014025726738865 19.06525889372809 10.887362575182571 0 0 0
266 1 10.890929134640345 0.04976143184313031 10.851918406615585 0 0 0
355 1 12.227002127194977 20.412364551957964 9.662628887724077 0 0 0
232 1 9.572277383433109 20.409634376994003 12.234133910332414 0 0 0
364 1 13.615190018773191 19.075985669925174 10.948540244600764 0 0 0
359 1 14.966962190527399 20.354791971901886 12.397236025078595 0 0 0
483 1 17.871670647915412 20.662828186684926 9.460805786589619 0 0 0
492 1 19.10110031198121 19.223498288934035 10.868365892515532 0 0 0
487 1 20.603591186215574 20.517694691199953 12.058935296576562 0 0 0
16 1 21.753825118486027 2.609370410286752 13.56554442939682 -1 0 0
22 1 2.652373048192757 21.717011092869324 13.439211773118487 0 -1 0
17 1 4.041963718834596 1.4419241122934063 14.753252806581651 0 0 0
139 1 5.5151458072472455 2.6019219121844976 13.39079904719741 0 0 0
145 1 8.108645314899483 0.0035410095863275277 13.721146655614184 0 0 0
140 1 9.424574475234303 1.3813304224536855 15.071344965678273 0 0 0
264 1 10.708929494685743 2.724608397175316 13.607408282771447 0 0 0
265 1 14.851405456532966 1.2646379094842328 14.832622479943536 0 0 0
270 1 13.402079825413814 0.018493730612162453 13.64265652285058 0 0 0
392 1 16.24358147847142 2.7061922448550715 13.466291674756063 0 0 0
393 1 20.51331804654829 1.3712625182952927 15.152293393522731 0 0 0
398 1 19.211445642593176 0.15305300475206923 13.487841369538241 0 0 0
19 1 1.2871542748685096 4.203928395476837 14.801780688188234 0 0 0
52 1 2.684038213837911 5.482993916693593 13.388568287882036 0 0 0
142 1 6.621009405889101 4.09987175137968 14.730417647170416 0 0 0
175 1 7.889883315228365 5.538765489509863 13.337377589966959 0 0 0
267 1 12.098037281940602 4.126338722574011 15.00560057886191 0 0 0
302 1 13.369474591696285 5.484578735949688 13.640639432928362 0 0 0
395 1 17.56505061633122 4.093147720688572 15.073893896595951 0 0 0
430 1 18.96014726122221 5.449477388495422 13.727901986248217 0 0 0
46 1 0.15938048221234247 8.090385890330037 13.780504811154781 0 0 0
47 1 4.015513804129437 6.679673525581688 14.850762852076793 0 0 0
169 1 5.10771831072224 8.251536118011225 13.434052477215412 0 0 0
170 1 9.434562869282107 6.858199747460323 14.964434981873131 0 0 0
296 1 10.766028105500308 8.150051163263003 13.699444906362183 0 0 0
297 1 14.738480943524902 6.860394094795805 15.12660808764905 0 0 0
424 1 16.14578869316553 8.111450232763271 13.69259810728564 0 0 0
425 1 20.477150795873605 6.819227021123706 15.109038912336288 0 0 0
49 1 1.4446372705368797 9.54553139628892 15.030284086510614 0 0 0
83 1 2.5554970342481225 11.065469828753393 13.665721892768524 0 0 0
78 1 4.0156399593837095 12.352915767217512 14.918860841121221 0 0 0
172 1 6.590679274077844 9.610564230206673 14.956673065350458 0 0 0
207 1 8.07364047828757 10.942237395467288 13.550189354650684 0 0 0
299 1 12.068110828400041 9.531432894670697 15.129491493438746 0 0 0
202 1 9.338445113328946 12.326539959834886 14.937383544786675 0 0 0
334 1 13.303251171489235 10.950911937649886 13.712315903116428 0 0 0
329 1 14.83213856021185 12.226210687862704 14.98634724338871 0 0 0
427 1 17.556873860818285 9.546830483727463 15.008219632238488 0 0 0
462 1 19.027731289251914 10.776037305864282 13.579247283587227 0 0 0
457 1 20.367153976021978 12.075491494819248 15.027366080993856 0 0 0
80 1 1.2256486676863503 15.054283687734493 14.929468741943127 0 0 0
201 1 5.173024507420942 13.654475949128463 13.6016585497234 0 0 0
204 1 6.672804505054053 14.846559950877316 14.971313535494527 0 0 0
328 1 10.701842446489449 13.609355515248165 13.57615288438892 0 0 0
331 1 12.196074455592582 15.004436043638652 14.883503519373292 0 0 0
456 1 16.32215258724942 13.594814439709715 13.580659477826066 0 0 0
459 1 17.685698256636186 14.892144168247436 14.866821669578298 0 0 0
77 1 21.623853334003318 13.570042162981327 13.575623676102229 -1 0 0
115 1 2.39901702750794 16.42953784318203 13.692026287650476 0 0 0
110 1 3.966041583247504 17.662364093509577 15.00769829930288 0 0 0
239 1 7.961841037697246 16.251184240924783 13.556611667930072 0 0 0
234 1 9.407468954030692 17.67483270312469 14.87752553152865 0 0 0
361 1 14.89897993996622 17.5747685137292 14.833528612191381 0 0 0
366 1 13.632231798418973 16.189588201028496 13.408925236458693 0 0 0
489 1 20.28330049870191 17.73378998939803 15.035784421890332 0 0 0
494 1 19.048290620004146 16.455193702432133 13.633548031665379 0 0 0
112 1 1.4165457539360577 20.407419374138815 14.966334814238634 0 0 0
109 1 21.68396049098348 19.29518881413367 13.623416702796487 -1 0 0
233 1 5.340325033310716 19.002097177294438 13.561576834284152 0 0 0
236 1 6.760516883234835 20.297317351260244 14.99875036849179 0 0 0
360 1 10.91652205831397 18.962878022206535 13.70220095411218 0 0 0
363 1 12.195715587508285 20.330523758534053 15.112836584392026 0 0 0
488 1 16.40340955112443 19.077830591407192 13.639889772069482 0 0 0
491 1 17.875317992014182 20.50217422333816 14.873563231400391 0 0 0
28 1 2.708093988446591 2.6320905809925335 16.29857979744246 0 0 0
29 1 1.553704209966418 1.4722500016896247 17.921826949927663 0 0 0
26 1 0.26287312928309386 0.08429036466555488 16.500877474650427 0 0 0
149 1 5.273717384274488 0.02176088031559721 16.13688612336315 0 0 0
151 1 7.931951224117295 2.914204980874854 16.337543601398355 0 0 0
152 1 6.799562116865989 1.2707785718612528 17.49539855807054 0 0 0
277 1 12.235714469859019 1.6237607307437678 17.749384225732566 0 0 0
276 1 13.505526227158406 2.7812076690701453 16.133624115041837 0 0 0
405 1 17.59780345054758 1.451108283735904 17.703702374530227 0 0 0
402 1 16.365193025481023 0.014261989751973425 16.17348822263013 0 0 0
404 1 18.975650183365566 2.760953622996841 16.378379224252157 0 0 0
56 1 0.03936573857177865 5.385311856169028 16.573613485180598 0 0 0
23 1 4.039754391651898 4.059594499237776 17.711291507140672 0 0 0
179 1 5.3321666520676505 5.518936255929178 16.26015517769445 0 0 0
146 1 9.476685109916001 4.108670958951349 17.600568399537856 0 0 0
306 1 10.761776636978324 5.45256560308375 16.30007078837519 0 0 0
271 1 14.85543323688368 4.146028596488389 17.764530167451145 0 0 0
434 1 16.117010502944428 5.437461998837962 16.4059641528362 0 0 0
399 1 20.24749088721665 3.974092699908239 17.91439404062534 0 0 0
58 1 2.7515522900838114 8.083107681036905 16.3817445502619 0 0 0
59 1 1.3447688182982898 6.749748893515658 17.74629888084377 0 0 0
181 1 8.003258119772036 8.124762325440805 16.219664474390648 0 0 0
182 1 6.739127582000051 6.828839927628993 17.839261901284015 0 0 0
309 1 12.144781306942903 6.894339587379063 17.724321355541637 0 0 0
308 1 13.526151808629086 8.336389035383187 16.446925870148178 0 0 0
437 1 17.604380467879984 6.72801649574199 17.759915882022717 0 0 0
436 1 18.918189620880305 8.25231785996071 16.40056433781806 0 0 0
90 1 1.4318061428608286 12.056192392167429 17.684452718332516 0 0 0
53 1 4.040708699047575 9.60392380952719 17.58131144538522 0 0 0
211 1 5.4604758969682115 11.087743317480669 16.26436690688973 0 0 0
214 1 6.745382785247183 12.301498984841134 17.83612564610624 0 0 0
176 1 9.408209030387063 9.467174099233468 17.53784884792656 0 0 0
338 1 10.799921816201325 11.03468879012223 16.346538135207368 0 0 0
303 1 14.923638014424142 9.56606636535147 17.773543748340444 0 0 0
466 1 16.190672840302742 10.947070669816675 16.417590200856992 0 0 0
469 1 17.719224019700658 12.153824740118365 17.720762315388782 0 0 0
87 1 0.09231234957995227 10.748868288473565 16.40398015933291 0 0 0
431 1 20.427038543829568 9.33596181187932 17.82070236834946 0 0 0
89 1 2.502783395226686 13.582575820874359 16.22521948375582 0 0 0
84 1 3.8930661007408163 14.863125950833908 17.75531076441559 0 0 0
213 1 8.01046592193472 13.664283047391148 16.451023132275555 0 0 0
208 1 9.570910354106209 14.951725400165577 17.532322265194313 0 0 0
341 1 12.257522188593448 12.207632585172979 17.826656339519257 0 0 0
335 1 14.969322919284398 14.985092895155384 17.62418014080481 0 0 0
340 1 13.525427388681686 13.613656309694628 16.333919146845094 0 0 0
463 1 20.497947382784663 14.934367167689311 17.76436603831169 0 0 0
468 1 18.974637276437882 13.49480589951175 16.259313601452025 0 0 0
122 1 1.3689257755062134 17.6420485459107 17.896281494780172 0 0 0
119 1 21.740532646058895 16.490244159046437 16.390891152563526 -1 0 0
243 1 5.220920352903103 16.303086264510274 16.392885784593783 0 0 0
246 1 6.539593846976393 17.602662644478283 17.768776214757892 0 0 0
370 1 10.861930034403386 16.381168143463647 16.114524923621726 0 0 0
373 1 12.170634441745568 17.749811051393 17.611620672617057 0 0 0
498 1 16.316229511449784 16.293204682926657 16.121888681745702 0 0 0
501 1 17.605035393360108 17.565559938004373 17.689639480251042 0 0 0
121 1 2.7270431743253614 19.057722801385665 16.381309916458836 0 0 0
116 1 4.053011746310099 20.536582171583525 17.80157927501762 0 0 0
245 1 7.988910307536617 18.819029034576975 16.48401629351438 0 0 0
274 1 10.777792341227734 0.04313136255896666 16.546791566808192 0 0 0
240 1 9.316168181070715 20.296982864637755 17.826321883027354 0 0 0
367 1 15.034091284425827 20.39844187086062 17.589154496929233 0 0 0
372 1 13.731290726347382 18.976100038524482 16.191831705537897 0 0 0
495 1 20.418488934341003 20.36948100193127 17.74434822889055 0 0 0
500 1 18.930678187693136 19.098358208180553 16.48514153983786 0 0 0
24 1 21.627421003692195 2.607120198067185 19.22754231903456 -1 0 0
30 1 2.6961526830363596 0.08291378779814289 19.35543263756418 0 0 0
25 1 4.038963046946126 1.5396693424064287 20.534612302580083 0 0 0
147 1 5.48960331881745 2.608287686254474 18.99135792854143 0 0 0
153 1 8.084643387199733 0.07768324281270758 18.94312195826337 0 0 0