LAMMPS (10 Sep 2025)
OMP_NUM_THREADS environment is not set. Defaulting to 1 thread.
  using 1 OpenMP thread(s) per MPI task
Loaded 1 plugins from C:\Users\lmike\AppData\Local\LAMMPS 64-bit 10Sep2025 with GUI\plugins
# LAMMPS input generated from LammpsInputFile with pymatgen v2025.10.7

# STYLES
units metal
atom_style atomic

# SET UP CALCULATION
read_data starting_config.dat
Reading data file ...
  orthogonal box = (0 0 0) to (21.754625 21.754625 21.754625)
  1 by 1 by 1 MPI processor grid
  reading atoms ...
  502 atoms
  read_data CPU = 0.005 seconds
pair_style sw
pair_coeff * * Si.sw Si
Reading sw potential file Si.sw with DATE: 2007-06-11
velocity all create 700 8778657

# CALCULATION PARAMETERS
fix f1 all nvt temp 700.0 700.0 $(100.0*dt)
fix f1 all nvt temp 700.0 700.0 0.10000000000000000555
thermo 100000
thermo_style custom step temp press spcpu cpuremain

# RUN CALC AND WRITE OUTPUTS
dump d1 all custom 100 state_dump id type x y z vx vy vz
run 10000000
Neighbor list info ...
  update: every = 1 steps, delay = 0 steps, check = yes
  max neighbors/atom: 2000, page size: 100000
  master list distance cutoff = 5.77118
  ghost atom cutoff = 5.77118
  binsize = 2.88559, bins = 8 8 8
  1 neighbor lists, perpetual/occasional/extra = 1 0 0
  (1) pair sw, perpetual
      attributes: full, newton on
      pair build: full/bin/atomonly
      stencil: full/bin/3d
      bin: standard
Per MPI rank memory allocation (min/avg/max) = 3.116 | 3.116 | 3.116 Mbytes
   Step          Temp          Press          S/CPU         CPULeft    
         0   700            582.65135      0              0            
    100000   726.80463     -17627.163      657.50505      15056.919    
    200000   710.25889     -16383.204      634.19841      15178.703    
    300000   686.57996     -15350.729      849.67373      13821.261    
    400000   670.44815     -15099.375      833.53457      13138.385    
    500000   712.52554     -14567.748      737.59996      12977.144    
    600000   713.10246     -14665.181      753.52415      12779.571    
    700000   696.06278     -14811.943      755.48713      12595.95     
    800000   684.53312     -12906.163      761.45226      12413.218    
    900000   699.88441     -14626.248      745.87209      12269.646    
   1000000   689.99988     -14519.889      746.9532       12126.228    
   1100000   695.43165     -15206.825      760.86043      11964.746    
   1200000   750.80368     -14959.7        745.62647      11827.964    
   1300000   713.83925     -14778.046      762.96073      11671.201    
   1400000   692.54593     -15074.225      745.71927      11536.724    
   1500000   701.19823     -14574.132      754.67008      11393.284    
   1600000   680.83125     -13726.806      755.11375      11250.802    
   1700000   697.85678     -14219.021      752.5089       11111.741    
   1800000   687.08917     -14961.441      757.73388      10969.191    
   1900000   711.78876     -14859.91       757.66103      10827.808    
   2000000   734.70393     -14622.466      762.75071      10683.843    
   2100000   716.77349     -14293.116      751.4137       10548.544    
   2200000   730.77243     -14495.157      757.28313      10409.789    
   2300000   713.08698     -14924.581      753.8883       10273.607    
   2400000   696.69244     -14481.561      753.13435      10138.141    
   2500000   742.61192     -12219.047      749.42193      10004.863    
   2600000   711.73529     -13978.923      755.40648      9868.5647    
   2700000   708.64434     -15067.848      754.1639       9733.146     
   2800000   674.76809     -13360.604      757.81763      9596.2849    
   2900000   661.86044     -15699.964      752.24152      9462.1568    
   3000000   670.95595     -14914.79       756.85171      9326.2187    
   3100000   695.88893     -14398.361      756.49116      9190.6668    
   3200000   708.93777     -15063.421      748.48517      9058.3296    
   3300000   729.79119     -12708.635      755.24742      8923.4869    
   3400000   758.4237      -13950.549      757.93999      8787.8744    
   3500000   715.63945     -14292.114      747.70911      8655.8247    
   3600000   721.65253     -14586.155      752.93134      8522.0319    
   3700000   684.24182     -14907.431      750.71253      8388.9603    
   3800000   664.53405     -13943.714      749.84091      8256.1343    
   3900000   717.89362     -14785.685      757.04169      8121.2967    
   4000000   688.00068     -15584.538      763.96076      7984.8018    
   4100000   684.229       -15279.507      764.93422      7848.3403    
   4200000   706.99086     -14426.393      752.87885      7715.0425    
   4300000   712.02925     -14394.434      757.07016      7580.792     
   4400000   675.30256     -15902.788      749.16786      7448.413     
   4500000   715.70073     -14236.989      758.45501      7313.9874    
   4600000   716.87181     -14490.445      757.29892      7179.9101    
   4700000   683.21559     -14239.488      744.01149      7048.5785    
   4800000   671.47246     -15793.583      758.41266      6914.354     
   4900000   719.98935     -14131.113      763.70468      6779.2752    
   5000000   693.69603     -15008.405      754.58913      6645.9437    
   5100000   719.49063     -14104.482      763.41131      6511.1725    
   5200000   699.15336     -14893.374      740.92199      6380.2169    
   5300000   670.58246     -14700.59       763.38307      6245.5883    
   5400000   690.32264     -15743.157      762.94486      6111.1584    
   5500000   744.66901     -14825.353      753.90298      5978.1368    
   5600000   703.27326     -14396.259      755.91684      5844.851     
   5700000   760.52236     -14940.832      755.52044      5711.6526    
   5800000   694.04703     -14537.379      755.68042      5578.4628    
   5900000   694.04956     -14793.452      771.95253      5443.3637    
   6000000   681.31271     -13546.073      763.41331      5309.4158    
   6100000   721.99424     -12739.183      757.74067      5176.1919    
   6200000   712.47006     -14464.843      753.53558      5043.4598    
   6300000   702.00162     -13446.332      770.15326      4909.0467    
   6400000   748.81883     -15131.474      747.42581      4776.9973    
   6500000   734.84271     -14528.044      774.02953      4642.4181    
   6600000   720.75845     -15004.819      765.62426      4508.7328    
   6700000   748.39415     -13854.196      761.62677      4375.4769    
   6800000   712.78663     -12881.803      756.32186      4242.7119    
   6900000   785.56721     -13728.366      753.53517      4110.1824    
   7000000   720.30988     -13022.457      756.27634      3977.4417    
   7100000   737.4572      -13171.003      753.39878      3844.9218    
   7200000   697.90496     -14390.09       731.03718      3713.9749    
   7300000   689.86091     -13100.812      754.57141      3581.2899    
   7400000   705.55844     -15096.639      767.21861      3447.8416    
   7500000   686.91346     -14725.603      748.49339      3315.5631    
   7600000   698.92231     -12801.535      758.61944      3182.6867    
   7700000   708.79006     -13734.792      753.16371      3050.1229    
   7800000   628.86413     -15248.581      754.76593      2917.4743    
   7900000   738.36182     -13775.262      765.78252      2784.323     
   8000000   707.50264     -13877.385      764.83676      2651.2762    
   8100000   747.13543     -15175.351      758.59797      2518.5384    
   8200000   677.8593      -16144.441      757.42098      2385.8679    
   8300000   689.61533     -14675.569      747.5859       2253.5687    
   8400000   690.31599     -14320.482      765.32288      2120.6441    
   8500000   733.22099     -14190.658      753.73354      1988.1272    
   8600000   662.32236     -15026.65       752.8917       1855.6309    
   8700000   701.95874     -13091.439      758.50831      1722.9801    
   8800000   692.83606     -14887.474      754.712        1590.4383    
   8900000   720.85161     -13055.194      751.78973      1457.961     
   9000000   699.11222     -15487.579      760.98941      1325.2931    
   9100000   696.53437     -15037.027      761.00006      1192.6527    
   9200000   702.37968     -13298.579      749.29426      1060.2176    
   9300000   697.64143     -14459.664      752.93523      927.71199    
   9400000   717.78709     -15461.627      757.90561      795.14419    
   9500000   718.49659     -14179.667      764.94098      662.52569    
   9600000   694.2027      -15221.144      758.73483      529.9911     
   9700000   752.32646     -15023.026      760.799        397.46063    
   9800000   695.75901     -15561.627      753.71556      264.97762    
   9900000   673.96611     -14466.143      746.50631      132.50364    
  10000000   702.58667     -12098.058      764.85701      0            
Loop time of 13248.6 on 1 procs for 10000000 steps with 502 atoms

Performance: 65.214 ns/day, 0.368 hours/ns, 754.796 timesteps/s, 378.908 katom-step/s
99.5% CPU use with 1 MPI tasks x 1 OpenMP threads

MPI task timing breakdown:
Section |  min time  |  avg time  |  max time  |%varavg| %total
---------------------------------------------------------------
Pair    | 12994      | 12994      | 12994      |   0.0 | 98.08
Neigh   | 0.89358    | 0.89358    | 0.89358    |   0.0 |  0.01
Comm    | 38.892     | 38.892     | 38.892     |   0.0 |  0.29
Output  | 142.28     | 142.28     | 142.28     |   0.0 |  1.07
Modify  | 58.474     | 58.474     | 58.474     |   0.0 |  0.44
Other   |            | 14.09      |            |       |  0.11

Nlocal:            502 ave         502 max         502 min
Histogram: 1 0 0 0 0 0 0 0 0 0
Nghost:           1409 ave        1409 max        1409 min
Histogram: 1 0 0 0 0 0 0 0 0 0
Neighs:              0 ave           0 max           0 min
Histogram: 1 0 0 0 0 0 0 0 0 0
FullNghs:        17408 ave       17408 max       17408 min
Histogram: 1 0 0 0 0 0 0 0 0 0

Total # of neighbors = 17408
Ave neighs/atom = 34.677291
Neighbor list builds = 1255
Dangerous builds = 0
write_data FINAL_STRUCTURE
System init for write_data ...
Total wall time: 3:40:48
