LAMMPS data file via write_data, version 10 Sep 2025, timestep = 10000000, units = metal

511 atoms
1 atom types

0 21.781566 xlo xhi
0 21.781566 ylo yhi
0 21.781566 zlo zhi

Masses

1 28.085

Atoms # atomic

36 1 1.1892943998168717 1.3214802353647783 1.3241219364740489 0 0 0
59 1 2.8237992992412364 2.2753900314380964 21.591793000112865 0 0 0
1 1 5.268943115928492 2.7613721458825107 2.8043718480311006 0 0 0
27 1 6.643892558735152 1.4768224916213963 1.2508587239758864 0 0 1
135 1 8.022405014851122 2.6784895946902556 0.13963626678006413 0 0 0
261 1 12.245170177109166 1.3831359436701722 1.2459760032765284 0 0 0
143 1 10.7550745793017 2.5808843371932246 2.6330597960797517 0 0 0
160 1 10.963723260400771 21.72997607264514 0.20955524419590432 0 -1 1
282 1 13.569081723472499 2.7309783907634135 0.05870586133220712 0 0 1
390 1 17.507234659788317 1.466550730917057 1.3179671646064015 0 0 0
269 1 16.20169342147905 2.7083240683998144 2.853167203671353 0 0 0
384 1 21.676281679155057 2.47115036141921 2.8141726184271287 0 0 0
389 1 19.081566013036632 2.5997755031609966 0.09537802747847132 0 0 0
40 1 2.8136489957441344 5.2689895975686385 2.7103368107892964 0 0 0
38 1 4.1571441089239345 4.181163563826016 1.2561295815108164 0 0 0
257 1 8.092077059610919 5.58498319392204 2.8651188529103764 0 0 0
131 1 9.419455429493079 4.1458618193896974 1.4839688056436475 0 0 0
385 1 14.891878481031526 4.043795330387215 1.3973150832102887 0 0 0
291 1 13.428978841328755 5.41653583577887 2.8277311620797785 0 0 0
419 1 16.414254342027625 5.316597392759899 0.18584446268172172 0 0 0
29 1 0.14996751676639875 5.253146139701171 0.031147553886366926 0 0 1
420 1 19.121918243478653 5.337431999855698 2.798323016678876 0 0 0
410 1 20.384534445903988 4.058508748707861 1.472398561782357 0 0 1
37 1 1.526391689811554 6.717988068284843 1.5415619560364957 0 0 0
431 1 21.554831255836564 8.10842137523296 2.722639313621292 0 0 0
162 1 5.353141760390401 8.282357194828638 2.719247622566434 0 0 0
168 1 6.75887556322875 6.6567652555550625 1.3769131028153 0 0 0
166 1 7.999458361229751 8.263323496754653 0.08457644413400071 0 0 0
293 1 12.184560331046757 6.691327280923098 1.5078003536545421 0 0 0
289 1 10.896944252438994 8.250907579258103 2.7538733885564994 0 0 0
288 1 13.491885935503507 7.954403039950804 0.2327848031987685 0 0 0
44 1 17.72435114145003 6.813773366749844 1.3628063897668792 -1 0 0
422 1 16.39534084076892 7.956449868644368 2.9470652247298994 0 0 0
421 1 19.1520998411083 8.131095389549966 21.67428437551983 0 0 -1
67 1 2.4775489305758853 10.810947659663649 2.7030175741155285 0 0 0
71 1 1.1805883727550484 12.402857527153751 1.2993771766117388 0 0 0
33 1 3.78816748334919 9.41482522123565 1.357610806096425 0 0 0
189 1 5.37149748678524 10.94611178877972 0.22858082652038728 0 0 1
199 1 7.960958027966177 10.993694426943113 2.936870290053885 0 0 0
198 1 6.618615904923599 12.381324822361846 1.5121307548562108 0 0 0
161 1 9.412257727387274 9.608208230857885 1.658912506380414 0 0 0
326 1 12.322889430161725 12.046943509422144 1.5056289016141187 0 0 0
316 1 10.80708646984139 10.863052635113473 0.3232994433132322 0 0 1
327 1 14.951120423756306 9.402680144337554 1.496507251109638 0 0 0
322 1 13.716730495129747 10.832342679677673 2.933114022687355 0 0 0
454 1 17.61473760049499 12.128050336655594 1.5416411480228136 0 0 0
416 1 20.383829334605892 9.529972730442474 1.2966015744314527 0 0 0
455 1 19.201609309324613 10.723005459532624 2.9357096640661626 0 0 0
66 1 21.543310446826283 13.609958982525107 2.9325220325654056 -1 0 0
65 1 4.045342795955638 14.939722654723614 1.3525221235673004 0 0 0
196 1 5.191103774823032 13.624663435891517 2.767264822588072 0 0 0
219 1 8.206854235481618 13.577625715900895 0.18630672933827697 0 0 1
232 1 9.316325956243087 14.849263829484773 1.610559677425734 0 0 0
321 1 10.834218919069942 13.399501768144228 2.937703548889531 0 0 0
320 1 14.951011120272895 14.818087409442473 1.4132982438884671 0 0 0
325 1 13.582308942974143 13.542241919340547 0.13162791207918123 0 0 0
449 1 16.38894462873042 13.594946415825582 2.85998358593086 0 0 0
448 1 20.20961448099494 14.854271699845526 1.4046785457313957 0 0 0
453 1 18.760084473683367 13.632109627724905 0.017100773295142063 0 0 0
103 1 1.3360961970915342 17.71515693723908 1.5255504598367442 0 0 0
104 1 2.818922301705685 16.255535879710745 2.7930703433843513 0 0 0
228 1 5.196045682743473 16.388608316753047 0.1331563764836498 0 0 0
226 1 6.667377204493234 17.60666537670555 1.6892954849902218 0 0 0
227 1 8.001240576981877 16.204597878538944 3.0388343036007246 0 0 0
359 1 12.080943327465318 17.554341666497766 1.7298189905789125 0 0 0
353 1 10.626316713137335 16.126562284167605 0.33923989394455134 0 0 0
491 1 13.386084792267484 16.09673304824207 2.8100295757526204 0 0 0
485 1 17.5302649974636 17.648698327936337 1.5041106560184136 0 0 0
483 1 16.05793324621183 16.3397885536431 0.17780623905336876 0 0 0
486 1 18.882871769277468 16.131859856897087 2.8057183106321695 0 0 0
100 1 21.765268511966436 16.244443994553322 0.10650868484752364 -1 0 0
97 1 2.4641018552165694 21.74568599121041 2.677762235528723 0 0 0
123 1 2.7876176442360943 19.137318728007447 0.04793540663656277 0 0 1
102 1 4.061605026691448 20.692101517044726 1.3234015520601967 0 0 0
132 1 5.316216732263791 19.25219549801464 2.880643896644508 0 -1 0
136 1 7.892764534505307 0.11318552490002531 2.7463550605022813 0 0 0
225 1 9.440720089837972 20.41045245175364 1.4422427992516638 0 0 0
356 1 10.711277458019191 18.984244318999338 2.9897293334839046 0 0 0
259 1 13.467370820502282 0.03529020722199405 2.9040686604749224 0 0 0
481 1 14.796038883878243 20.370499357828947 1.4472441405791088 0 0 0
387 1 15.950508361930513 21.756676945158322 0.08724961640335155 0 -1 0
354 1 16.091268009889195 19.011308409514854 2.7656418759553056 0 0 0
484 1 19.024505873830734 21.762950497960528 2.551732286589418 0 0 0
98 1 21.47162189862562 18.93158181008152 2.705480485418684 -1 0 0
480 1 20.430996582443598 20.32586323592143 1.1656197060231765 0 0 0
506 1 18.853084635596105 18.97631017058672 0.11667467921231682 0 0 1
14 1 2.643691948798605 2.767774097625402 5.444475148181665 0 0 0
130 1 3.9378695922613693 1.2498963396568445 4.119442869801558 0 0 0
9 1 8.011393858169665 2.7287044067694297 5.404584648613124 0 0 0
267 1 9.26850587256207 1.307408454703628 4.0971722185743555 0 0 0
233 1 10.885233886241915 0.05262641996582414 5.48127961754891 0 1 0
263 1 14.968301876116929 1.3468257764289406 4.1300090311540245 0 0 0
270 1 13.36351779464883 2.756316758291184 5.479907331720811 0 0 0
266 1 19.111284022988283 2.9638992139920592 5.667819198118495 0 0 0
386 1 20.139079797628973 1.4050890566368819 4.15346110119819 0 0 0
101 1 21.65094905493347 0.06198539577012241 5.3122663090382805 -1 1 0
15 1 1.2695381247017858 4.048869511550771 3.7882572286143676 0 0 0
175 1 5.400938047930186 5.449656898750048 5.334149835420278 0 0 0
133 1 6.772041970253283 4.078378218744446 4.073539405777113 0 0 0
294 1 12.009404468928327 4.0296628865632025 4.106152086446423 0 0 0
302 1 10.701029015161124 5.509379089815799 5.521045424398184 0 0 0
258 1 17.63882567273741 4.188541646442943 4.067769023318456 0 0 0
427 1 16.157152277257392 5.219222227991532 5.6485599690107815 0 0 0
391 1 0.1608586776347991 5.504465226188721 5.414145902876399 1 0 0
46 1 2.8147159271733013 8.32123448928623 5.45647578035149 0 0 0
35 1 4.176876118138165 6.823866825486444 3.9607288250794292 0 0 0
165 1 8.078436094048659 8.276065426201438 5.416657000881048 0 0 0
299 1 9.61034470679462 6.991451013063768 4.169497775159255 0 0 0
290 1 14.92463480764014 6.710592940318962 4.172301634625933 0 0 0
301 1 13.649150959049258 7.948657458178164 5.678242124534251 0 0 0
417 1 18.997930068528717 8.021601903505365 5.761129643587788 0 0 0
2 1 20.284512479457675 6.8108472064835555 4.281030425034921 -1 0 0
72 1 1.2453018972897136 9.631610420096402 4.172121993187769 0 0 0
170 1 5.176351954727473 10.823269566598238 5.686535037367373 0 0 0
194 1 4.011990812445193 12.14140686376534 4.149331939119719 0 0 0
204 1 6.575882045363315 9.584482732186933 4.215328475801624 0 0 0
200 1 9.517673045392534 12.118775054047116 4.362426695829528 0 0 0
292 1 12.236449797707103 9.467462868115259 4.288874532761726 0 0 0
331 1 10.855823024912064 10.669322901395944 5.7642705709924975 0 0 0
459 1 14.994556322673198 12.17897260264525 4.382334447722909 0 0 0
462 1 17.686280110403846 9.366843835565154 4.315953831359873 0 0 0
458 1 16.288006394047674 10.884540661073933 5.673867289855321 0 0 0
463 1 21.532315894399076 10.80553674639534 5.615221586155284 0 0 0
450 1 20.271907790464017 12.178733865958574 4.265974401774341 0 0 0
69 1 1.297890579856412 14.902934699236475 3.9636328148748206 0 0 0
78 1 2.524943087572747 13.628826949227072 5.427541025004018 0 0 0
197 1 6.631413611484223 15.029531262990714 4.133444280545778 0 0 0
205 1 8.004295455550517 13.74366613518751 5.571346060984562 0 0 0
363 1 12.219890008310644 14.87690568820562 4.2302331304192435 0 0 0
324 1 13.61679647904376 13.530030077681914 5.570459300082762 0 0 0
452 1 17.626891288914965 14.890098656123593 4.217331992515359 0 0 0
461 1 18.923130999628015 13.597224306660236 5.634088511321977 0 0 0
229 1 3.9382625827425253 17.82136166019967 4.255809651696168 0 0 0
73 1 5.384850647787896 16.392609606033766 5.489206471130882 0 0 0
240 1 9.234083253740312 17.608174294354075 4.240488909022337 0 0 0
206 1 10.74839171059498 16.410584470462712 5.44839282067708 0 0 0
365 1 14.789978503637524 17.554316319491576 4.257322318291738 0 0 0
328 1 16.317077948597234 16.303705642384376 5.60732035941995 0 0 0
456 1 21.55293318632997 16.10227185967308 5.538789207700665 0 0 0
487 1 20.291035828946615 17.527040961862365 4.126949660270314 0 0 0
99 1 2.5732099406621325 19.121055905640947 5.573313748010837 0 0 0
8 1 1.0964227283312458 20.286349724584493 4.100736065708468 0 -1 0
176 1 5.360512994607201 0.08251234233339844 5.607774053423638 0 0 0
238 1 6.67794009963209 20.589379958610973 4.2762269155955615 0 0 0
235 1 8.010127543094649 19.02158543548768 5.7087921925268255 0 0 0
262 1 12.149909687036086 20.35109811161575 4.144415592084676 0 -1 0
366 1 13.454473250162154 19.081820258342756 5.538755426812957 0 0 0
395 1 16.55408966739997 0.1461356431209113 5.303597778092735 0 0 0
493 1 17.66984029483637 20.443280436547912 3.892414169710733 0 0 0
494 1 19.09325777428059 19.180388614520187 5.399590790624243 0 0 0
12 1 1.131286620123805 1.3310978894577379 6.665183790588617 0 0 0
399 1 0.11305935192411454 2.9887764653418123 8.110369204380016 1 0 0
16 1 2.4450676045843522 21.757984934351494 8.23464287668072 0 -1 0
148 1 5.344429596801014 2.681758159446409 8.09784882379838 0 0 0
138 1 6.964727665853428 1.4378576685298032 6.877296222027399 0 0 0
140 1 8.202571959821316 21.7520122337714 8.241078650299123 0 -1 0
265 1 12.001996352223854 1.7024120996419216 6.724750315627715 0 0 0
137 1 10.732592046848179 2.8935001522642847 8.32350975236506 0 0 0
426 1 16.31076677821738 2.6657482838727424 8.205122302088137 0 0 0
392 1 17.74906430086027 1.271417973991463 6.898433316150591 0 0 0
397 1 19.15414126524489 0.0712366463270466 8.280384314455786 0 0 0
5 1 2.8032629407571332 5.57266263362431 8.101640318156441 0 0 0
172 1 4.013499313919435 4.120786567702558 6.728040307829661 0 0 0
142 1 7.916995911481864 5.451519403030924 8.33735913902523 0 0 0
260 1 9.323212718046086 4.032715781989432 6.985657140022858 0 0 0
264 1 14.815447149258361 3.977666275428641 6.996174460101492 0 0 0
268 1 13.622235519147464 5.420595271127112 8.461802973586002 0 0 0
10 1 18.99941434800136 5.330996147177054 8.38525229362608 -1 0 0
423 1 20.58796483738826 4.255055089983382 6.873434145337283 0 0 0
47 1 1.4748993589923263 6.893445630005277 6.742993364201556 0 0 0
43 1 5.40296157580905 8.279555238406767 8.254614390443162 0 0 0
163 1 6.728149141175766 6.974271485675129 6.75629438573917 0 0 0
171 1 10.587106753476126 8.102379038502473 8.340015120761047 0 0 0
303 1 12.049416130996574 6.7274346046135545 7.136487070437408 0 0 0
396 1 17.667439504826973 6.718396067362246 7.174265689582734 0 0 0
429 1 16.451721480239335 8.016955496659909 8.522721295393783 0 0 0
55 1 0.0537306466972467 8.072695393134309 8.219983399066281 0 0 0
74 1 2.553130613079562 10.967643269923078 8.233791776389523 0 0 0
76 1 1.1295815404064338 12.348919683164883 6.808923577499897 0 0 0
41 1 3.9038834518168337 9.586959525663284 6.961498848058095 0 0 0
208 1 8.160828348920315 10.919056743375947 8.224031240133124 0 0 0
207 1 6.675474145923309 12.118125153635594 6.797032692863177 0 0 0
174 1 9.562958714645069 9.39357928789509 6.932407213302126 0 0 0
334 1 12.14539556532782 12.221950864874543 6.926241427524978 0 0 0
296 1 15.099005508902701 9.387209590455903 7.014651583764023 0 0 0
335 1 13.621681203843947 10.8760378615292 8.35599763788547 0 0 0
418 1 20.302229135667528 9.512764018067799 6.906857970971126 0 0 0
42 1 19.153242032612834 11.01286148402232 8.414887535438254 -1 0 0
112 1 5.279355309339454 13.61208321782513 7.918667784233557 0 0 0
111 1 3.9064156363415945 14.923844472611812 6.644035760220163 0 0 0
107 1 9.418863349922097 15.058104277480423 6.795719567649503 0 0 0
329 1 10.724068758814756 13.688228173106442 8.253117285819886 0 0 0
367 1 14.840767052171648 15.023687042835443 6.900740517294567 0 0 0
425 1 17.71176790235419 12.192745262632723 7.09369374609145 0 0 0
333 1 16.263899221467256 13.680346097034489 8.201594732597256 0 0 0
79 1 21.725541439481685 13.738217846277381 8.300469722673766 -1 0 0
45 1 20.22420128168954 14.956941423686285 7.033974125810856 -1 0 0
482 1 1.1667393271555975 17.601796164129095 6.891034396710651 1 0 0
77 1 2.634485700005575 16.27302287078231 8.218119005130204 0 0 0
239 1 6.628214442105667 17.637676750731323 6.980720781052043 0 0 0
236 1 8.028062961364519 16.352443109951896 8.362410800195862 0 0 0
201 1 12.208294347075856 17.611765145484533 6.964785758957671 0 0 0
362 1 13.383651644395634 16.1859512305759 8.425938429780812 0 0 0
495 1 17.828134370746252 17.804121826015677 6.813588088026714 0 0 0
460 1 18.860492289783256 16.497830423066866 8.26233270779869 0 0 0
108 1 21.557671645990546 19.060879991216602 8.089462122259084 -1 0 0
237 1 5.235628697105078 18.903137768278093 8.358950472989592 0 0 0
110 1 3.920775720008535 20.524276562048342 6.761172356339767 0 0 0
361 1 9.639004255106114 20.296080306490254 6.969287569669667 0 0 0
246 1 10.959661871582458 19.049662085495253 8.40705727778683 0 0 0
489 1 13.634056992271534 0.18801838556589437 8.066112728787154 0 1 0
360 1 14.852754523055777 20.53856037937081 6.6692215878907 0 0 0
403 1 16.383443891761626 19.057287956085315 7.9081188949114605 0 -1 0
488 1 20.314075944705603 20.55613585016439 6.755655578096494 0 0 0
183 1 2.6342181295981923 2.66730837303318 10.790591711626769 0 0 0
17 1 1.1468692541057695 1.412629289026115 11.993272679987431 0 0 0
11 1 4.0453858455460505 1.378593612631788 9.397982446842004 0 0 0
151 1 5.458734225307817 0.021232420738105162 10.841972460060035 0 0 0
139 1 7.92716026812106 2.616155028119227 11.005888670287332 0 0 0
3 1 9.45090709910546 1.4001372248647108 9.659489921595231 0 0 0
372 1 12.000892292967675 1.1980970973655451 12.357359224738953 0 1 0
279 1 10.650192497337134 21.586105110137908 11.003838303585251 0 -1 0
271 1 14.87701641011289 1.3084017944878719 9.395700769984451 0 0 0
278 1 13.55968171184965 2.510410671316528 11.009209934512954 0 0 0
406 1 16.31135666030249 0.11951251463777719 10.863878208164117 0 0 0
402 1 17.681426805864294 1.5108331600210614 12.117221335591564 0 0 0
405 1 20.3855333564731 1.514078249997323 9.54275488248251 0 0 0
393 1 19.06505513162294 2.8199844910825083 10.863843221240094 0 0 0
119 1 21.61145258447302 0.09801399202612757 10.755901124832599 -1 1 0
52 1 1.584330485140481 4.127859307525033 9.488088369594012 0 0 0
398 1 0.10067892692934066 5.443662915746732 10.831877857374169 1 0 0
48 1 5.475922667216261 5.447682102902938 10.716362348444852 0 0 0
180 1 3.904590066451404 4.145490874596514 12.021558644010769 0 0 0
49 1 6.68613842304549 3.859017634213559 9.680799888916175 0 0 0
311 1 10.832544110190637 5.251644054697166 10.986965471986327 0 0 0
277 1 12.28571678862504 4.037036299586557 9.625649081665062 0 0 0
272 1 14.772318394523218 4.200064711014056 12.531411904297437 0 0 0
388 1 17.488839990926014 4.076119275826543 9.676769227217704 0 0 0
437 1 16.126842294606075 5.376860477023943 11.065151426089862 0 0 0
400 1 20.397958650681105 4.1435350365287675 12.31681819794294 0 0 0
80 1 2.6792788834541588 8.118081704105691 10.957749748147542 0 0 0
434 1 1.3365658398651197 6.680591540247198 12.291176945589084 1 0 0
13 1 4.019840578662663 6.868092052683098 9.61907662938019 0 0 0
177 1 8.005366352418383 8.26098061096318 10.937335088452146 0 0 0
54 1 6.705301357916971 6.70167641939593 12.237428317231362 0 0 0
307 1 9.392217931716585 6.71324002309219 9.743721977149002 0 0 0
297 1 12.22764125682536 6.83810332949937 12.376394962295084 0 0 0
298 1 14.958234848852412 6.9274230229380445 9.71147016785243 0 0 0
182 1 13.505622077325187 8.300808290827906 10.897668607949328 0 0 0
304 1 17.660091839466837 6.762719584504885 12.274417116676148 0 0 0
430 1 20.45306309602002 6.769132388219181 9.59241771837164 0 0 0
432 1 19.205392767840436 8.118068321957908 11.045024526381779 0 0 0
86 1 1.2448232278669535 9.538092482369725 9.617942098422276 0 0 0
88 1 0.046894094870552294 10.881946372456667 11.165614985222856 0 0 0
203 1 5.394045755653283 10.989577628736145 10.846300565352783 0 0 0
212 1 4.146272774111299 12.347480072999712 9.355037177166436 0 0 0
83 1 3.7895314420286472 9.793877520675883 12.322534069210013 0 0 0
178 1 6.750963431911133 9.59419293428942 9.58915420941465 0 0 0
169 1 9.406167525101822 12.312763409063704 9.577736853376285 0 0 0
300 1 12.054439121559984 9.599675394387871 9.514410706890978 0 0 0
339 1 10.618367426954686 10.916045345451943 10.940818218809389 0 0 0
211 1 9.318395025681916 9.63920145864638 12.254684256437013 0 0 0
330 1 15.001998958352724 12.501941548663266 9.610275558174584 0 0 0
428 1 17.814035897453955 9.578949309575439 9.739060638557584 0 0 0
467 1 16.111358448264884 10.846838492457731 11.082134688587395 0 0 0
424 1 20.582898819277904 12.314207258077152 9.824521127932659 0 0 0
116 1 1.1863267972284564 15.123811820048907 9.68882034340281 0 0 0
81 1 2.733323512785557 13.695539825604927 10.807053342606384 0 0 0
248 1 4.022792538659271 14.742752530434482 12.337562921113642 0 0 0
202 1 6.45268267506169 15.052373243644904 9.500782560737132 0 0 0
216 1 8.037437415668565 13.741338590673138 10.803269363117863 0 0 0
214 1 9.237698979482488 15.058081920547727 12.387677657763255 0 0 0
342 1 12.036619173093415 12.265903448222174 12.60614480445335 0 0 0
332 1 12.074191095258765 14.987509737538476 9.765815338227645 0 0 0
341 1 13.442433091772775 13.729129796350101 11.176345904174235 0 0 0
336 1 14.807020134966395 15.127135380075432 12.377474885472088 0 0 0
457 1 17.453105749926134 14.986104515652762 9.616970698546323 0 0 0
469 1 18.932820575460138 13.577104666776684 11.017297466688122 0 0 0
114 1 1.1423887004888496 17.726727285461415 12.33534271346541 0 0 0
234 1 3.8047372524843612 17.79480284364188 9.562808737766389 0 0 0
120 1 5.116993109251932 16.344189842974387 10.90174791190334 0 0 0
371 1 9.459459353034976 17.798196504474202 9.715255271233998 0 0 0
373 1 10.774922422326183 16.25685838425169 11.136272176661016 0 0 0
374 1 12.283805496066575 17.757664657777386 12.06770729095468 0 0 0
492 1 15.034335831442037 17.665670149306063 9.377940922080963 0 0 0
499 1 16.145609342254343 16.603478876375256 11.003165763295662 0 0 0
502 1 17.613853920586685 17.852986439937244 12.320493786248916 0 0 0
464 1 21.49822099304792 16.53242810218234 11.01644145371983 0 0 0
490 1 20.234300681025736 17.775532771772763 9.38464762937545 0 0 0
109 1 1.1357994721216138 20.328950629215836 9.583505307956285 0 0 0
113 1 2.552654041454074 19.076497974446635 11.012021769474662 0 0 0
118 1 3.9457029697258688 20.300783420311735 12.296034914464938 0 0 0
144 1 6.863004955249733 20.368008137701626 9.52999198239487 0 -1 0
105 1 8.001610540207896 19.093727204561933 11.007272092254569 0 0 0
275 1 12.27559964603043 20.46006176647153 9.486851434474222 0 -1 0
364 1 13.66058158497035 19.07013093870277 10.725844664213431 0 0 0
368 1 14.763304579582341 20.50943287305878 12.254080185658117 0 0 0
501 1 17.662723684918387 20.35232380417152 9.475092797398442 0 0 0
244 1 18.920915943115297 18.965616074380574 10.938116062119807 -1 0 0
106 1 20.362445441366106 20.52677248743394 12.072705553305871 -1 0 0
23 1 2.6773530610621497 0.1784350038457596 13.536915338654651 0 0 0
24 1 3.9464455694584966 1.5815998423589137 14.983618478345075 0 0 0
146 1 5.343084493736242 2.891994405172528 13.440292145496436 0 0 0
184 1 6.820549202192921 1.2486759941438694 12.461516758618721 0 0 0
158 1 9.251783239878394 1.5482944987308553 15.188421823471996 0 0 0
150 1 10.732204666383046 2.6603627829787344 13.725775843578601 0 0 0
505 1 15.011474073726005 1.1537698373991156 15.11009958120607 0 1 0
435 1 16.233973668527216 2.7340202081505787 13.779728400162854 0 0 0
22 1 21.7808465018685 2.868286256067727 13.482167819199828 -1 0 0
28 1 20.482628300399757 1.3907467764125658 14.932167837630692 -1 0 0
496 1 19.003108330174143 0.20734134280956149 13.52104577041386 0 1 0
394 1 1.4082698665365838 4.229810435814393 15.049484586288681 1 0 0
21 1 2.705089329608016 5.371387059057515 13.542489189411231 0 0 0
145 1 7.984730080024206 5.560718470257397 13.752530079607471 0 0 0
149 1 6.5134027372458885 4.142750237446495 15.118554285211978 0 0 0
141 1 9.334806118015484 3.963904820523602 12.361300792463341 0 0 0
315 1 12.196584888603342 4.221013078441361 15.028688927550615 0 0 0
276 1 13.522049701204878 5.605008795648878 13.761511799574984 0 0 0
401 1 17.639637279906374 4.082861916945466 15.108764984212396 0 0 0
404 1 18.884466716406173 5.402673309096397 13.67151457868169 0 0 0
51 1 4.004861440616751 6.76279458562786 14.944457444163914 0 0 0
62 1 5.24677000380598 8.139253071925387 13.528542346146157 0 0 0
190 1 9.51652059206595 6.93389282122725 15.094475849606033 0 0 0
305 1 10.846836504791412 8.294458961199314 13.718493308260685 0 0 0
443 1 14.853482703609963 6.657740451623728 15.025135649180212 0 0 0
309 1 16.166523999042443 8.069618499268925 13.69772826118084 0 0 0
471 1 21.745697102519248 7.9507850001433695 13.744590861479852 0 0 0
439 1 20.250535906917104 6.704702020181808 15.28265449996373 0 0 0
84 1 1.2957518806882287 12.546482627269524 12.391665713080997 0 0 0
50 1 1.199709597328869 9.467118024951374 15.257084593158075 0 0 0
87 1 2.428542722469229 10.926682050869566 13.838743832106642 0 0 0
89 1 3.8720969513694565 12.32085654038589 15.159541307379312 0 0 0
173 1 6.674599805439028 12.328431861089577 12.268398500932978 0 0 0
75 1 6.447485503539729 9.468545920366738 15.01985597924559 0 0 0
94 1 7.685118824337962 10.98533442572721 13.662647831548256 0 0 0
217 1 9.28996588514476 12.308902094586312 15.118961559549716 0 0 0
308 1 12.284487959864606 9.436513235824712 15.08509329963553 0 0 0
310 1 14.860207560068268 9.467485742063053 12.431431824635263 0 0 0
343 1 13.682247865529929 11.015015939073534 13.715547594372952 0 0 0
338 1 14.840818351803398 12.328634413260932 15.338677139595434 0 0 0
470 1 17.634756784647767 12.038816683200746 12.262826341790491 0 0 0
306 1 17.480541135604426 9.44678258439855 15.195301527781872 0 0 0
433 1 20.55943831402675 9.479847323917607 12.49966570798998 0 0 0
438 1 18.93211272956748 10.760848362807211 13.748325718604637 0 0 0
466 1 20.18547180099318 12.26881834397588 15.030454185449413 0 0 0
218 1 1.3200162234430286 15.021513211701299 15.017357121905867 0 0 0
252 1 5.3024903560047525 13.479747327465418 13.728362130108577 0 0 0
215 1 6.639257098131822 14.979761758859219 14.998911077672275 0 0 0
340 1 10.636387253816837 13.753738138586055 13.945162714507457 0 0 0
349 1 12.067299466681494 15.201632922791147 15.19745169752626 0 0 0
465 1 16.236670330869746 13.612087366548772 13.646794548595993 0 0 0
468 1 17.56916683551118 15.162467742420313 14.835009581571303 0 0 0
503 1 20.209014881346704 15.084150709449046 12.440325640986394 0 0 0
82 1 21.63232492615561 13.728725435463446 13.715256879890667 -1 0 0
210 1 2.702573818305718 16.404505446062323 13.570866367734292 0 0 0
247 1 3.8636592576481874 17.787770258622366 15.172818433681178 0 0 0
115 1 6.546506478589861 17.844037654801035 12.257176584071933 0 0 0
209 1 7.8566624533525715 16.53803879243448 13.699620102109332 0 0 0
213 1 9.300352470229878 17.663994653677175 15.119984343582127 0 0 0
375 1 13.305856527307995 16.393920685799706 13.673673171978448 0 0 0
497 1 14.720251047240533 17.568985810399493 14.882064638775335 0 0 0
500 1 18.91556280063592 16.574386001017984 13.700988479525604 0 0 0
18 1 20.34508440778011 17.721281983424166 15.176710973159533 -1 -1 0
117 1 1.4859463915536564 20.659730456961253 14.935123660842466 0 0 0
242 1 5.184553766310468 19.15611936280395 13.653865796372555 0 0 0
152 1 8.094419956599916 21.77478333740085 13.992780370118146 0 -1 0
243 1 6.4623747178917945 20.396988920026995 15.120158661884851 0 0 0
241 1 9.176518099471778 20.33648624596006 12.525152603514051 0 0 0
369 1 10.787235539643133 18.98192929976153 13.565333332800497 0 0 0
381 1 11.979370690585307 20.320498143868665 15.118726716972521 0 0 0
274 1 13.41088561321655 21.680327953927783 13.776122953363984 0 -1 0
411 1 16.231955861282383 19.124169469336504 13.487065020555708 0 -1 0
407 1 17.653275483219765 20.512076658238925 14.845137944582738 0 -1 0
20 1 21.592545506439485 19.275871106773245 13.732677424936927 -1 -1 0
56 1 1.2310480258693166 1.3627860928474174 17.883674428027657 0 0 0
25 1 2.6231195783661314 2.8005144481818878 16.309720198275347 0 0 0
245 1 5.232604727182258 0.07276515352324608 16.506634783937326 0 1 0
156 1 7.954567364097539 2.9488005297884157 16.50915998639295 0 0 0
154 1 6.7185274970706255 1.341942242537661 17.951598221379314 0 0 0
283 1 12.04602891826985 1.3009713250227712 17.74961850312755 0 0 0
147 1 10.809119807312664 0.06436562574857518 16.384256662491218 0 0 0
280 1 13.489682568941161 2.4899549497717812 16.48998386068011 0 0 0
414 1 17.52039318853984 1.0946793359576121 17.649621309281496 0 0 0
413 1 19.01449652028122 2.435563799759141 16.366553547765267 0 0 0
30 1 0.08158064164667703 0.07401372504751828 16.337668536211364 0 0 0
188 1 5.340880127547198 5.671889551738879 16.587593190210278 0 0 0
6 1 4.356771827989395 3.9527598266404604 17.83276141643701 0 0 -1
179 1 9.484287320914193 4.186869364178855 17.85353120114524 0 0 0
273 1 10.886341666403188 5.503467687019064 16.465297016141523 0 0 0
285 1 14.994814109964384 3.745529026558085 17.71818517331427 0 0 0
319 1 16.14325975415487 5.316906754655946 16.502286697144346 0 0 0
408 1 21.573174034076494 5.280494657875511 16.430379617688097 0 0 0
447 1 20.2503722943771 3.9235942408057958 17.749438764545246 0 0 0
53 1 2.5473925538164655 8.013005146689466 16.440865353626616 0 0 0
63 1 1.1436425671452308 6.872244300716533 17.82577986392187 0 0 0
181 1 8.04385873825424 8.40873978720642 16.429958186734517 0 0 0
191 1 6.8581738202577744 6.970439045322092 17.750018027010885 0 0 0
318 1 12.112414779949852 6.886188882524775 17.90007186933254 0 0 0
185 1 9.42807783034212 9.656767935176209 17.904860933065063 0 0 0
317 1 13.63406682157302 8.145290756707968 16.385646841144876 0 0 0
445 1 17.418376814538476 6.629252893517732 17.92426732663076 0 0 0
436 1 18.873205377700724 8.130855268458403 16.561685462935436 0 0 0
92 1 1.1360273844314226 12.486537838278565 17.870314628533826 0 0 0
57 1 3.842172504306625 9.467902327889776 17.669055771905526 0 0 0
220 1 5.134197967563477 10.918524385684485 16.45643926792872 0 0 0
223 1 6.818471626013939 12.195892361514751 17.738846882362225 0 0 0
337 1 10.720273377213575 10.819543959184019 16.465694093887983 0 0 0
347 1 12.156110621290647 12.066547030441743 17.91467899488328 0 0 0
312 1 14.821178284114136 9.524601496321107 18.007487921272848 0 0 0
60 1 16.06360882401458 10.745464778294611 16.35624305528319 -1 0 0
479 1 21.446781387621808 10.96987389132218 16.318904932646657 0 0 0
474 1 20.325400026318313 9.446652916936877 17.737118858147586 0 0 0
128 1 2.5837956725839044 13.656903813164696 16.561497687702893 0 0 0
193 1 4.004195493636341 14.972827390480072 17.910288108898413 0 0 -1
222 1 8.061078785863526 13.721304883454712 16.310601237190212 0 0 0
251 1 9.327259232762447 14.878242652321983 17.933599482253356 0 0 0
350 1 13.232085573033222 13.7535933887543 16.51972216261563 0 0 0
344 1 14.966380317946292 15.119675268870637 17.654185083100764 0 0 0
475 1 17.53898977042574 12.227533125469396 17.641686211281257 0 0 0
477 1 18.77770141003749 13.8084189286401 16.40977996439885 0 0 0
85 1 20.229401035651886 15.093398031213818 17.75888363760914 -1 0 0
124 1 1.4586486729109032 17.59628757586117 17.894576462848597 0 0 0
126 1 5.317749178210984 16.33541020100926 16.562949067128283 0 0 0
377 1 6.615185666429967 17.63607886010742 17.882789462566553 0 0 0
379 1 10.588075445327197 16.374207824768042 16.440036852964425 0 0 0
382 1 11.891478838490805 17.612238478521867 17.82436803608813 0 0 0
507 1 16.16267344433219 16.495878338293114 16.163622633177848 0 0 0
509 1 17.595311268342822 17.734592512686145 17.469164276729366 0 0 0
498 1 21.6679200690746 16.36647100010108 16.479644834375616 0 0 0
121 1 2.604832722168179 19.110868270114803 16.412989973695655 0 0 0
19 1 4.001130448037282 20.62024290772886 17.94314087520037 0 -1 0
255 1 7.876617862499925 18.997677811446792 16.28806176682829 0 0 0
254 1 9.36958822997683 20.358582016932097 17.72354491573468 0 0 0
370 1 13.402754867120121 18.80447579042435 16.421623618179048 0 0 0
287 1 14.897565545420688 20.050198812302384 17.686799521317948 0 -1 0