LAMMPS (10 Sep 2025)
OMP_NUM_THREADS environment is not set. Defaulting to 1 thread.
  using 1 OpenMP thread(s) per MPI task
Loaded 1 plugins from C:\Users\lmike\AppData\Local\LAMMPS 64-bit 10Sep2025 with GUI\plugins
# LAMMPS input generated from LammpsInputFile with pymatgen v2025.10.7

# STYLES
units metal
atom_style atomic

# SET UP CALCULATION
read_data starting_config.dat
Reading data file ...
  orthogonal box = (0 0 0) to (21.781566 21.781566 21.781566)
  1 by 1 by 1 MPI processor grid
  reading atoms ...
  511 atoms
  read_data CPU = 0.003 seconds
pair_style sw
pair_coeff * * Si.sw Si
Reading sw potential file Si.sw with DATE: 2007-06-11
velocity all create 1000 8714130

# CALCULATION PARAMETERS
fix f1 all nvt temp 1000.0 1000.0 $(100.0*dt)
fix f1 all nvt temp 1000.0 1000.0 0.10000000000000000555
thermo 100000
thermo_style custom step temp press spcpu cpuremain

# RUN CALC AND WRITE OUTPUTS
dump d1 all custom 100 state_dump id type x y z vx vy vz
run 10000000
Neighbor list info ...
  update: every = 1 steps, delay = 0 steps, check = yes
  max neighbors/atom: 2000, page size: 100000
  master list distance cutoff = 5.77118
  ghost atom cutoff = 5.77118
  binsize = 2.88559, bins = 8 8 8
  1 neighbor lists, perpetual/occasional/extra = 1 0 0
  (1) pair sw, perpetual
      attributes: full, newton on
      pair build: full/bin/atomonly
      stencil: full/bin/3d
      bin: standard
Per MPI rank memory allocation (min/avg/max) = 3.118 | 3.118 | 3.118 Mbytes
   Step          Temp          Press          S/CPU         CPULeft    
         0   1000          -1141.6666      0              0            
    100000   998.19701     -607.35119      425.3424       23275.366    
    200000   982.60333     -667.46011      400.87549      23743.377    
    300000   976.52353     -238.73064      451.19109      22833.616    
    400000   1101.459      -291.85431      517.41424      21587.113    
    500000   972.98991     -1524.3704      530.10153      20674.017    
    600000   1002.3698     -266.90018      529.10225      20007.987    
    700000   960.93146     -1825.1043      528.40301      19481.574    
    800000   1037.2677     -237.52009      516.04301      19091.579    
    900000   936.5969      -963.62158      526.53328      18706.15     
   1000000   1004.1523     -650.08512      504.09352      18435.913    
   1100000   923.37454     -1408.839       520.32836      18128.661    
   1200000   995.55947     -236.21121      523.88476      17831.02     
   1300000   1035.8656     -878.36488      535.46518      17522.176    
   1400000   1053.439      -346.09858      523.86561      17256.176    
   1500000   989.12676     -1117.9022      525.36495      16997.103    
   1600000   932.26619     -1449.9502      524.92072      16747.467    
   1700000   1030.3771      776.39772      518.4535       16516.39     
   1800000   1011.221      -1134.7943      538.06219      16257.535    
   1900000   1067.9954     -406.38776      509.22758      16051.229    
   2000000   974.0363      -1297.4465      510.93566      15843.29     
   2100000   965.74352     -1287.3876      527.90841      15612.842    
   2200000   1014.4754     -1559.8719      521.44506      15394.449    
   2300000   1055.2148     -1126.2385      522.29638      15177.323    
   2400000   1015.7973     -1003.0947      528.05906      14955.72     
   2500000   1014.3172     -246.11197      533.86141      14730.52     
   2600000   1052.1222     -609.87454      535.18108      14506.92     
   2700000   950.57341     -804.06883      541.60758      14280.048    
   2800000   1007.5272     -359.58175      520.51562      14075.431    
   2900000   1003.9929     -747.77612      532.28813      13861.274    
   3000000   1010.6968     -494.48046      519.52373      13659.639    
   3100000   1025.0266     -1282.2469      533.52102      13447.354    
   3200000   1000.3858     -102.29961      531.92149      13237.821    
   3300000   944.34391     -788.2622       525.60612      13034.178    
   3400000   1029.9309     -310.88944      547.71622      12816.415    
   3500000   1005.6087     -359.81187      524.95595      12615.363    
   3600000   1011.7674     -1141.0647      526.81446      12413.703    
   3700000   955.16522     -1150.1033      516.98698      12218.827    
   3800000   1031.0635     -508.34226      514.8199       12025.355    
   3900000   935.64258     -1856.1601      524.16384      11826.428    
   4000000   956.67058     -489.32508      526.05562      11626.879    
   4100000   1012.7067     -983.05889      518.1271       11431.978    
   4200000   995.29457     -1272.9898      529.92552      11231.233    
   4300000   1012.5359     -694.11409      537.99549      11027.295    
   4400000   1057.9781     -404.03648      527.72979      10828.781    
   4500000   986.20614     -660.32214      533.17075      10628.304    
   4600000   1007.0899     -1025.7906      539.41357      10425.84     
   4700000   1003.1713     -133.1822       528.84999      10228.279    
   4800000   1024.0056     -750.31985      517.95544      10035.38     
   4900000   1051.8066      143.53928      528.10831      9838.6106    
   5000000   1009.6242     -519.28291      520.42252      9644.9343    
   5100000   991.10471     -683.2361       533.61137      9446.7548    
   5200000   997.06303     -1327.4032      529.28713      9250.4031    
   5300000   1016.4256     -939.71977      524.03653      9056.01      
   5400000   981.17653     -699.15334      516.46637      8864.1317    
   5500000   963.38834     -878.03608      514.38791      8672.8301    
   5600000   1029.1613     -517.59772      520.02406      8479.7621    
   5700000   988.24113     -133.05462      517.78557      8287.3482    
   5800000   974.41973     -14.467901      520.6942       8094.1284    
   5900000   999.88456     -523.44445      511.98207      7903.2192    
   6000000   1009.7562     -1024.0385      525.44166      7708.8275    
   6100000   988.95898     -579.1803       542.52791      7510.7374    
   6200000   1014.7116     -779.10016      531.85738      7315.3579    
   6300000   1005.0564     -766.11723      537.37292      7119.0787    
   6400000   994.94371     -1183.6577      525.42747      6925.4976    
   6500000   996.53581     -2011.9298      523.10452      6732.4719    
   6600000   976.87922     -285.92002      521.14679      6539.8725    
   6700000   1032.3006      175.55702      527.77261      6346.1079    
   6800000   959.69599     -246.75209      518.94111      6153.9869    
   6900000   1056.3868     -952.9848       552.626        5956.572     
   7000000   999.74404     -1567.5778      529.38965      5763.0314    
   7100000   1011.0221     -1363.4379      515.67998      5571.6728    
   7200000   1066.1753      818.6326       529.45361      5378.2812    
   7300000   987.41291     -676.73692      563.33195      5180.8122    
   7400000   970.89513     -667.09317      642.51082      4976.1964    
   7500000   1069.9026      342.46569      642.01761      4772.9265    
   7600000   1017.3891     -169.92288      674.28003      4568.5534    
   7700000   998.82545     -497.9485       676.94238      4365.4624    
   7800000   963.96027     -269.92563      692.2652       4162.8688    
   7900000   992.70799     -199.61575      708.87779      3960.8473    
   8000000   1004.1625     -253.05017      705.58392      3760.5142    
   8100000   997.33931     -484.07964      689.10509      3562.4232    
   8200000   991.56762     -293.75564      689.28047      3365.6162    
   8300000   984.37652     -826.93952      686.17341      3170.1901    
   8400000   973.63106     -558.12945      688.97208      2975.8345    
   8500000   991.73698     -672.93486      695.03354      2782.4133    
   8600000   1011.9438     -417.49777      691.65696      2590.2587    
   8700000   953.31929     -831.33978      692.05619      2399.1853    
   8800000   994.1497      -850.68273      687.98055      2209.2871    
   8900000   1029.3816     -933.79558      692.42531      2020.2747    
   9000000   938.22973     -610.63092      690.90327      1832.2886    
   9100000   977.0917      -1163.5263      698.6507       1645.0942    
   9200000   1035.5178     -93.810347      705.53123      1458.7363    
   9300000   1038.962      -1328.3328      688.69613      1273.5988    
   9400000   1023.1844     -111.78651      721.23117      1088.8928    
   9500000   968.2397      -484.4195       728.49162      905.08373    
   9600000   1021.0269     -283.46803      723.64182      722.28253    
   9700000   914.69054     -1261.6533      792.30988      540.03074    
   9800000   1075.172      -314.36134      812.89307      358.85738    
   9900000   1087.9853     -105.07985      827.23397      178.83734    
  10000000   1031.1758      33.483506      837.35296      0            
Loop time of 17824.3 on 1 procs for 10000000 steps with 511 atoms

Performance: 48.473 ns/day, 0.495 hours/ns, 561.031 timesteps/s, 286.687 katom-step/s
99.6% CPU use with 1 MPI tasks x 1 OpenMP threads

MPI task timing breakdown:
Section |  min time  |  avg time  |  max time  |%varavg| %total
---------------------------------------------------------------
Pair    | 17549      | 17549      | 17549      |   0.0 | 98.45
Neigh   | 2.6787     | 2.6787     | 2.6787     |   0.0 |  0.02
Comm    | 44.096     | 44.096     | 44.096     |   0.0 |  0.25
Output  | 146.23     | 146.23     | 146.23     |   0.0 |  0.82
Modify  | 65.908     | 65.908     | 65.908     |   0.0 |  0.37
Other   |            | 16.64      |            |       |  0.09

Nlocal:            511 ave         511 max         511 min
Histogram: 1 0 0 0 0 0 0 0 0 0
Nghost:           1443 ave        1443 max        1443 min
Histogram: 1 0 0 0 0 0 0 0 0 0
Neighs:              0 ave           0 max           0 min
Histogram: 1 0 0 0 0 0 0 0 0 0
FullNghs:        18158 ave       18158 max       18158 min
Histogram: 1 0 0 0 0 0 0 0 0 0

Total # of neighbors = 18158
Ave neighs/atom = 35.534247
Neighbor list builds = 3502
Dangerous builds = 0
write_data FINAL_STRUCTURE
System init for write_data ...
Total wall time: 4:57:04
