Generated by pymatgen.io.lammps.data.LammpsData

511  atoms

  1  atom types

0.000000 21.781566  xlo xhi
0.000000 21.781566  ylo yhi
0.000000 21.781566  zlo zhi

Masses

1  28.085

Atoms

1    1   4.084044   4.084044   1.361348
2    1   0.000000   2.722696   2.722696
3    1   4.084044   1.361348   4.084044
4    1   0.000000   0.000000   0.000000
5    1   1.361348   4.084044   4.084044
6    1   2.722696   2.722696   0.000000
7    1   1.361348   1.361348   1.361348
8    1   2.722696   0.000000   2.722696
9    1   4.084044   4.084044   6.806739
10   1   0.000000   2.722696   8.168087
11   1   4.084044   1.361348   9.529435
12   1   0.000000   0.000000   5.445391
13   1   1.361348   4.084044   9.529435
14   1   2.722696   2.722696   5.445391
15   1   1.361348   1.361348   6.806739
16   1   2.722696   0.000000   8.168087
17   1   4.084044   4.084044  12.252131
18   1   0.000000   2.722696  13.613479
19   1   4.084044   1.361348  14.974827
20   1   0.000000   0.000000  10.890783
21   1   1.361348   4.084044  14.974827
22   1   2.722696   2.722696  10.890783
23   1   1.361348   1.361348  12.252131
24   1   2.722696   0.000000  13.613479
25   1   4.084044   4.084044  17.697522
26   1   0.000000   2.722696  19.058870
27   1   4.084044   1.361348  20.420218
28   1   0.000000   0.000000  16.336174
29   1   1.361348   4.084044  20.420218
30   1   2.722696   2.722696  16.336174
31   1   1.361348   1.361348  17.697522
32   1   2.722696   0.000000  19.058870
33   1   4.084044   9.529435   1.361348
34   1   0.000000   8.168087   2.722696
35   1   4.084044   6.806739   4.084044
36   1   0.000000   5.445391   0.000000
37   1   1.361348   9.529435   4.084044
38   1   2.722696   8.168087   0.000000
39   1   1.361348   6.806739   1.361348
40   1   2.722696   5.445391   2.722696
41   1   4.084044   9.529435   6.806739
42   1   0.000000   8.168087   8.168087
43   1   4.084044   6.806739   9.529435
44   1   0.000000   5.445391   5.445391
45   1   1.361348   9.529435   9.529435
46   1   2.722696   8.168087   5.445391
47   1   1.361348   6.806739   6.806739
48   1   2.722696   5.445391   8.168087
49   1   4.084044   9.529435  12.252131
50   1   0.000000   8.168087  13.613479
51   1   4.084044   6.806739  14.974827
52   1   0.000000   5.445391  10.890783
53   1   1.361348   9.529435  14.974827
54   1   2.722696   8.168087  10.890783
55   1   1.361348   6.806739  12.252131
56   1   2.722696   5.445391  13.613479
57   1   4.084044   9.529435  17.697522
58   1   0.000000   8.168087  19.058870
59   1   4.084044   6.806739  20.420218
60   1   0.000000   5.445391  16.336174
61   1   1.361348   9.529435  20.420218
62   1   2.722696   8.168087  16.336174
63   1   1.361348   6.806739  17.697522
64   1   2.722696   5.445391  19.058870
65   1   4.084044  14.974827   1.361348
66   1   0.000000  13.613479   2.722696
67   1   4.084044  12.252131   4.084044
68   1   0.000000  10.890783   0.000000
69   1   1.361348  14.974827   4.084044
70   1   2.722696  13.613479   0.000000
71   1   1.361348  12.252131   1.361348
72   1   2.722696  10.890783   2.722696
73   1   4.084044  14.974827   6.806739
74   1   0.000000  13.613479   8.168087
75   1   4.084044  12.252131   9.529435
76   1   0.000000  10.890783   5.445391
77   1   1.361348  14.974827   9.529435
78   1   2.722696  13.613479   5.445391
79   1   1.361348  12.252131   6.806739
80   1   2.722696  10.890783   8.168087
81   1   4.084044  14.974827  12.252131
82   1   0.000000  13.613479  13.613479
83   1   4.084044  12.252131  14.974827
84   1   0.000000  10.890783  10.890783
85   1   1.361348  14.974827  14.974827
86   1   2.722696  13.613479  10.890783
87   1   1.361348  12.252131  12.252131
88   1   2.722696  10.890783  13.613479
89   1   4.084044  14.974827  17.697522
90   1   0.000000  13.613479  19.058870
91   1   4.084044  12.252131  20.420218
92   1   0.000000  10.890783  16.336174
93   1   1.361348  14.974827  20.420218
94   1   2.722696  13.613479  16.336174
95   1   1.361348  12.252131  17.697522
96   1   2.722696  10.890783  19.058870
97   1   4.084044  20.420218   1.361348
98   1   0.000000  19.058870   2.722696
99   1   4.084044  17.697522   4.084044
100  1   0.000000  16.336174   0.000000
101  1   1.361348  20.420218   4.084044
102  1   2.722696  19.058870   0.000000
103  1   1.361348  17.697522   1.361348
104  1   2.722696  16.336174   2.722696
105  1   4.084044  20.420218   6.806739
106  1   0.000000  19.058870   8.168087
107  1   4.084044  17.697522   9.529435
108  1   0.000000  16.336174   5.445391
109  1   1.361348  20.420218   9.529435
110  1   2.722696  19.058870   5.445391
111  1   1.361348  17.697522   6.806739
112  1   2.722696  16.336174   8.168087
113  1   4.084044  20.420218  12.252131
114  1   0.000000  19.058870  13.613479
115  1   4.084044  17.697522  14.974827
116  1   0.000000  16.336174  10.890783
117  1   1.361348  20.420218  14.974827
118  1   2.722696  19.058870  10.890783
119  1   1.361348  17.697522  12.252131
120  1   2.722696  16.336174  13.613479
121  1   4.084044  20.420218  17.697522
122  1   0.000000  19.058870  19.058870
123  1   4.084044  17.697522  20.420218
124  1   0.000000  16.336174  16.336174
125  1   1.361348  20.420218  20.420218
126  1   2.722696  19.058870  16.336174
127  1   1.361348  17.697522  17.697522
128  1   2.722696  16.336174  19.058870
129  1   9.529435   4.084044   1.361348
130  1   5.445391   2.722696   2.722696
131  1   9.529435   1.361348   4.084044
132  1   5.445391   0.000000   0.000000
133  1   6.806739   4.084044   4.084044
134  1   8.168087   2.722696   0.000000
135  1   6.806739   1.361348   1.361348
136  1   8.168087   0.000000   2.722696
137  1   9.529435   4.084044   6.806739
138  1   5.445391   2.722696   8.168087
139  1   9.529435   1.361348   9.529435
140  1   5.445391   0.000000   5.445391
141  1   6.806739   4.084044   9.529435
142  1   8.168087   2.722696   5.445391
143  1   6.806739   1.361348   6.806739
144  1   8.168087   0.000000   8.168087
145  1   9.529435   4.084044  12.252131
146  1   5.445391   2.722696  13.613479
147  1   9.529435   1.361348  14.974827
148  1   5.445391   0.000000  10.890783
149  1   6.806739   4.084044  14.974827
150  1   8.168087   2.722696  10.890783
151  1   6.806739   1.361348  12.252131
152  1   8.168087   0.000000  13.613479
153  1   9.529435   4.084044  17.697522
154  1   5.445391   2.722696  19.058870
155  1   9.529435   1.361348  20.420218
156  1   5.445391   0.000000  16.336174
157  1   6.806739   4.084044  20.420218
158  1   8.168087   2.722696  16.336174
159  1   6.806739   1.361348  17.697522
160  1   8.168087   0.000000  19.058870
161  1   9.529435   9.529435   1.361348
162  1   5.445391   8.168087   2.722696
163  1   9.529435   6.806739   4.084044
164  1   5.445391   5.445391   0.000000
165  1   6.806739   9.529435   4.084044
166  1   8.168087   8.168087   0.000000
167  1   6.806739   6.806739   1.361348
168  1   8.168087   5.445391   2.722696
169  1   9.529435   9.529435   6.806739
170  1   5.445391   8.168087   8.168087
171  1   9.529435   6.806739   9.529435
172  1   5.445391   5.445391   5.445391
173  1   6.806739   9.529435   9.529435
174  1   8.168087   8.168087   5.445391
175  1   6.806739   6.806739   6.806739
176  1   8.168087   5.445391   8.168087
177  1   9.529435   9.529435  12.252131
178  1   5.445391   8.168087  13.613479
179  1   9.529435   6.806739  14.974827
180  1   5.445391   5.445391  10.890783
181  1   6.806739   9.529435  14.974827
182  1   8.168087   8.168087  10.890783
183  1   6.806739   6.806739  12.252131
184  1   8.168087   5.445391  13.613479
185  1   9.529435   9.529435  17.697522
186  1   5.445391   8.168087  19.058870
187  1   9.529435   6.806739  20.420218
188  1   5.445391   5.445391  16.336174
189  1   6.806739   9.529435  20.420218
190  1   8.168087   8.168087  16.336174
191  1   6.806739   6.806739  17.697522
192  1   8.168087   5.445391  19.058870
193  1   9.529435  14.974827   1.361348
194  1   5.445391  13.613479   2.722696
195  1   9.529435  12.252131   4.084044
196  1   5.445391  10.890783   0.000000
197  1   6.806739  14.974827   4.084044
198  1   8.168087  13.613479   0.000000
199  1   6.806739  12.252131   1.361348
200  1   8.168087  10.890783   2.722696
201  1   9.529435  14.974827   6.806739
202  1   5.445391  13.613479   8.168087
203  1   9.529435  12.252131   9.529435
204  1   5.445391  10.890783   5.445391
205  1   6.806739  14.974827   9.529435
206  1   8.168087  13.613479   5.445391
207  1   6.806739  12.252131   6.806739
208  1   8.168087  10.890783   8.168087
209  1   9.529435  14.974827  12.252131
210  1   5.445391  13.613479  13.613479
211  1   9.529435  12.252131  14.974827
212  1   5.445391  10.890783  10.890783
213  1   6.806739  14.974827  14.974827
214  1   8.168087  13.613479  10.890783
215  1   6.806739  12.252131  12.252131
216  1   8.168087  10.890783  13.613479
217  1   9.529435  14.974827  17.697522
218  1   5.445391  13.613479  19.058870
219  1   9.529435  12.252131  20.420218
220  1   5.445391  10.890783  16.336174
221  1   6.806739  14.974827  20.420218
222  1   8.168087  13.613479  16.336174
223  1   6.806739  12.252131  17.697522
224  1   8.168087  10.890783  19.058870
225  1   9.529435  20.420218   1.361348
226  1   5.445391  19.058870   2.722696
227  1   9.529435  17.697522   4.084044
228  1   5.445391  16.336174   0.000000
229  1   6.806739  20.420218   4.084044
230  1   8.168087  19.058870   0.000000
231  1   6.806739  17.697522   1.361348
232  1   8.168087  16.336174   2.722696
233  1   9.529435  20.420218   6.806739
234  1   5.445391  19.058870   8.168087
235  1   9.529435  17.697522   9.529435
236  1   5.445391  16.336174   5.445391
237  1   6.806739  20.420218   9.529435
238  1   8.168087  19.058870   5.445391
239  1   6.806739  17.697522   6.806739
240  1   8.168087  16.336174   8.168087
241  1   9.529435  20.420218  12.252131
242  1   5.445391  19.058870  13.613479
243  1   9.529435  17.697522  14.974827
244  1   5.445391  16.336174  10.890783
245  1   6.806739  20.420218  14.974827
246  1   8.168087  19.058870  10.890783
247  1   6.806739  17.697522  12.252131
248  1   8.168087  16.336174  13.613479
249  1   9.529435  20.420218  17.697522
250  1   5.445391  19.058870  19.058870
251  1   9.529435  17.697522  20.420218
252  1   5.445391  16.336174  16.336174
253  1   6.806739  20.420218  20.420218
254  1   8.168087  19.058870  16.336174
255  1   6.806739  17.697522  17.697522
256  1   8.168087  16.336174  19.058870
257  1  10.890783   2.722696   2.722696
258  1  14.974827   1.361348   4.084044
259  1  10.890783   0.000000   0.000000
260  1  12.252131   4.084044   4.084044
261  1  13.613479   2.722696   0.000000
262  1  12.252131   1.361348   1.361348
263  1  13.613479   0.000000   2.722696
264  1  14.974827   4.084044   6.806739
265  1  10.890783   2.722696   8.168087
266  1  14.974827   1.361348   9.529435
267  1  10.890783   0.000000   5.445391
268  1  12.252131   4.084044   9.529435
269  1  13.613479   2.722696   5.445391
270  1  12.252131   1.361348   6.806739
271  1  13.613479   0.000000   8.168087
272  1  14.974827   4.084044  12.252131
273  1  10.890783   2.722696  13.613479
274  1  14.974827   1.361348  14.974827
275  1  10.890783   0.000000  10.890783
276  1  12.252131   4.084044  14.974827
277  1  13.613479   2.722696  10.890783
278  1  12.252131   1.361348  12.252131
279  1  13.613479   0.000000  13.613479
280  1  14.974827   4.084044  17.697522
281  1  10.890783   2.722696  19.058870
282  1  14.974827   1.361348  20.420218
283  1  10.890783   0.000000  16.336174
284  1  12.252131   4.084044  20.420218
285  1  13.613479   2.722696  16.336174
286  1  12.252131   1.361348  17.697522
287  1  13.613479   0.000000  19.058870
288  1  14.974827   9.529435   1.361348
289  1  10.890783   8.168087   2.722696
290  1  14.974827   6.806739   4.084044
291  1  10.890783   5.445391   0.000000
292  1  12.252131   9.529435   4.084044
293  1  13.613479   8.168087   0.000000
294  1  12.252131   6.806739   1.361348
295  1  13.613479   5.445391   2.722696
296  1  14.974827   9.529435   6.806739
297  1  10.890783   8.168087   8.168087
298  1  14.974827   6.806739   9.529435
299  1  10.890783   5.445391   5.445391
300  1  12.252131   9.529435   9.529435
301  1  13.613479   8.168087   5.445391
302  1  12.252131   6.806739   6.806739
303  1  13.613479   5.445391   8.168087
304  1  14.974827   9.529435  12.252131
305  1  10.890783   8.168087  13.613479
306  1  14.974827   6.806739  14.974827
307  1  10.890783   5.445391  10.890783
308  1  12.252131   9.529435  14.974827
309  1  13.613479   8.168087  10.890783
310  1  12.252131   6.806739  12.252131
311  1  13.613479   5.445391  13.613479
312  1  14.974827   9.529435  17.697522
313  1  10.890783   8.168087  19.058870
314  1  14.974827   6.806739  20.420218
315  1  10.890783   5.445391  16.336174
316  1  12.252131   9.529435  20.420218
317  1  13.613479   8.168087  16.336174
318  1  12.252131   6.806739  17.697522
319  1  13.613479   5.445391  19.058870
320  1  14.974827  14.974827   1.361348
321  1  10.890783  13.613479   2.722696
322  1  14.974827  12.252131   4.084044
323  1  10.890783  10.890783   0.000000
324  1  12.252131  14.974827   4.084044
325  1  13.613479  13.613479   0.000000
326  1  12.252131  12.252131   1.361348
327  1  13.613479  10.890783   2.722696
328  1  14.974827  14.974827   6.806739
329  1  10.890783  13.613479   8.168087
330  1  14.974827  12.252131   9.529435
331  1  10.890783  10.890783   5.445391
332  1  12.252131  14.974827   9.529435
333  1  13.613479  13.613479   5.445391
334  1  12.252131  12.252131   6.806739
335  1  13.613479  10.890783   8.168087
336  1  14.974827  14.974827  12.252131
337  1  10.890783  13.613479  13.613479
338  1  14.974827  12.252131  14.974827
339  1  10.890783  10.890783  10.890783
340  1  12.252131  14.974827  14.974827
341  1  13.613479  13.613479  10.890783
342  1  12.252131  12.252131  12.252131
343  1  13.613479  10.890783  13.613479
344  1  14.974827  14.974827  17.697522
345  1  10.890783  13.613479  19.058870
346  1  14.974827  12.252131  20.420218
347  1  10.890783  10.890783  16.336174
348  1  12.252131  14.974827  20.420218
349  1  13.613479  13.613479  16.336174
350  1  12.252131  12.252131  17.697522
351  1  13.613479  10.890783  19.058870
352  1  14.974827  20.420218   1.361348
353  1  10.890783  19.058870   2.722696
354  1  14.974827  17.697522   4.084044
355  1  10.890783  16.336174   0.000000
356  1  12.252131  20.420218   4.084044
357  1  13.613479  19.058870   0.000000
358  1  12.252131  17.697522   1.361348
359  1  13.613479  16.336174   2.722696
360  1  14.974827  20.420218   6.806739
361  1  10.890783  19.058870   8.168087
362  1  14.974827  17.697522   9.529435
363  1  10.890783  16.336174   5.445391
364  1  12.252131  20.420218   9.529435
365  1  13.613479  19.058870   5.445391
366  1  12.252131  17.697522   6.806739
367  1  13.613479  16.336174   8.168087
368  1  14.974827  20.420218  12.252131
369  1  10.890783  19.058870  13.613479
370  1  14.974827  17.697522  14.974827
371  1  10.890783  16.336174  10.890783
372  1  12.252131  20.420218  14.974827
373  1  13.613479  19.058870  10.890783
374  1  12.252131  17.697522  12.252131
375  1  13.613479  16.336174  13.613479
376  1  14.974827  20.420218  17.697522
377  1  10.890783  19.058870  19.058870
378  1  14.974827  17.697522  20.420218
379  1  10.890783  16.336174  16.336174
380  1  12.252131  20.420218  20.420218
381  1  13.613479  19.058870  16.336174
382  1  12.252131  17.697522  17.697522
383  1  13.613479  16.336174  19.058870
384  1  20.420218   4.084044   1.361348
385  1  16.336174   2.722696   2.722696
386  1  20.420218   1.361348   4.084044
387  1  16.336174   0.000000   0.000000
388  1  17.697522   4.084044   4.084044
389  1  19.058870   2.722696   0.000000
390  1  17.697522   1.361348   1.361348
391  1  19.058870   0.000000   2.722696
392  1  20.420218   4.084044   6.806739
393  1  16.336174   2.722696   8.168087
394  1  20.420218   1.361348   9.529435
395  1  16.336174   0.000000   5.445391
396  1  17.697522   4.084044   9.529435
397  1  19.058870   2.722696   5.445391
398  1  17.697522   1.361348   6.806739
399  1  19.058870   0.000000   8.168087
400  1  20.420218   4.084044  12.252131
401  1  16.336174   2.722696  13.613479
402  1  20.420218   1.361348  14.974827
403  1  16.336174   0.000000  10.890783
404  1  17.697522   4.084044  14.974827
405  1  19.058870   2.722696  10.890783
406  1  17.697522   1.361348  12.252131
407  1  19.058870   0.000000  13.613479
408  1  20.420218   4.084044  17.697522
409  1  16.336174   2.722696  19.058870
410  1  20.420218   1.361348  20.420218
411  1  16.336174   0.000000  16.336174
412  1  17.697522   4.084044  20.420218
413  1  19.058870   2.722696  16.336174
414  1  17.697522   1.361348  17.697522
415  1  19.058870   0.000000  19.058870
416  1  20.420218   9.529435   1.361348
417  1  16.336174   8.168087   2.722696
418  1  20.420218   6.806739   4.084044
419  1  16.336174   5.445391   0.000000
420  1  17.697522   9.529435   4.084044
421  1  19.058870   8.168087   0.000000
422  1  17.697522   6.806739   1.361348
423  1  19.058870   5.445391   2.722696
424  1  20.420218   9.529435   6.806739
425  1  16.336174   8.168087   8.168087
426  1  20.420218   6.806739   9.529435
427  1  16.336174   5.445391   5.445391
428  1  17.697522   9.529435   9.529435
429  1  19.058870   8.168087   5.445391
430  1  17.697522   6.806739   6.806739
431  1  19.058870   5.445391   8.168087
432  1  20.420218   9.529435  12.252131
433  1  16.336174   8.168087  13.613479
434  1  20.420218   6.806739  14.974827
435  1  16.336174   5.445391  10.890783
436  1  17.697522   9.529435  14.974827
437  1  19.058870   8.168087  10.890783
438  1  17.697522   6.806739  12.252131
439  1  19.058870   5.445391  13.613479
440  1  20.420218   9.529435  17.697522
441  1  16.336174   8.168087  19.058870
442  1  20.420218   6.806739  20.420218
443  1  16.336174   5.445391  16.336174
444  1  17.697522   9.529435  20.420218
445  1  19.058870   8.168087  16.336174
446  1  17.697522   6.806739  17.697522
447  1  19.058870   5.445391  19.058870
448  1  20.420218  14.974827   1.361348
449  1  16.336174  13.613479   2.722696
450  1  20.420218  12.252131   4.084044
451  1  16.336174  10.890783   0.000000
452  1  17.697522  14.974827   4.084044
453  1  19.058870  13.613479   0.000000
454  1  17.697522  12.252131   1.361348
455  1  19.058870  10.890783   2.722696
456  1  20.420218  14.974827   6.806739
457  1  16.336174  13.613479   8.168087
458  1  20.420218  12.252131   9.529435
459  1  16.336174  10.890783   5.445391
460  1  17.697522  14.974827   9.529435
461  1  19.058870  13.613479   5.445391
462  1  17.697522  12.252131   6.806739
463  1  19.058870  10.890783   8.168087
464  1  20.420218  14.974827  12.252131
465  1  16.336174  13.613479  13.613479
466  1  20.420218  12.252131  14.974827
467  1  16.336174  10.890783  10.890783
468  1  17.697522  14.974827  14.974827
469  1  19.058870  13.613479  10.890783
470  1  17.697522  12.252131  12.252131
471  1  19.058870  10.890783  13.613479
472  1  20.420218  14.974827  17.697522
473  1  16.336174  13.613479  19.058870
474  1  20.420218  12.252131  20.420218
475  1  16.336174  10.890783  16.336174
476  1  17.697522  14.974827  20.420218
477  1  19.058870  13.613479  16.336174
478  1  17.697522  12.252131  17.697522
479  1  19.058870  10.890783  19.058870
480  1  20.420218  20.420218   1.361348
481  1  16.336174  19.058870   2.722696
482  1  20.420218  17.697522   4.084044
483  1  16.336174  16.336174   0.000000
484  1  17.697522  20.420218   4.084044
485  1  19.058870  19.058870   0.000000
486  1  17.697522  17.697522   1.361348
487  1  19.058870  16.336174   2.722696
488  1  20.420218  20.420218   6.806739
489  1  16.336174  19.058870   8.168087
490  1  20.420218  17.697522   9.529435
491  1  16.336174  16.336174   5.445391
492  1  17.697522  20.420218   9.529435
493  1  19.058870  19.058870   5.445391
494  1  17.697522  17.697522   6.806739
495  1  19.058870  16.336174   8.168087
496  1  20.420218  20.420218  12.252131
497  1  16.336174  19.058870  13.613479
498  1  20.420218  17.697522  14.974827
499  1  16.336174  16.336174  10.890783
500  1  17.697522  20.420218  14.974827
501  1  19.058870  19.058870  10.890783
502  1  17.697522  17.697522  12.252131
503  1  19.058870  16.336174  13.613479
504  1  20.420218  20.420218  17.697522
505  1  16.336174  19.058870  19.058870
506  1  20.420218  17.697522  20.420218
507  1  16.336174  16.336174  16.336174
508  1  17.697522  20.420218  20.420218
509  1  19.058870  19.058870  16.336174
510  1  17.697522  17.697522  17.697522
511  1  19.058870  16.336174  19.058870

