LAMMPS data file via write_data, version 10 Sep 2025, timestep = 10000000, units = metal

502 atoms
1 atom types

0 21.781566 xlo xhi
0 21.781566 ylo yhi
0 21.781566 zlo zhi

Masses

1 28.085

Atoms # atomic

6 1 1.337564521981552 1.3916595622012722 1.529450021927095 0 0 0
4 1 0.08688099169297797 2.8525758706936615 2.6101223997524583 0 0 0
5 1 2.438885105227884 2.8924845302304405 0.24546963835141644 0 0 0
7 1 2.7753248550672285 0.08226526026656186 2.761058800521439 0 0 0
127 1 5.299448828515493 2.9775894756072794 2.9677347136784302 0 0 0
126 1 5.281744484599846 0.0202327999008709 21.555834959721906 0 0 -1
129 1 6.662927504386151 1.5866872673753927 1.2320750001879228 0 0 0
220 1 8.047598583744705 0.2274425934136051 2.715322792264994 0 1 0
128 1 8.184104080275507 2.8226331260288404 21.63423382092264 0 0 -1
125 1 10.899394651874873 2.7925303330378064 2.6279929420201964 0 0 0
253 1 12.10926632371985 1.3139084207306448 1.3883697498502223 0 0 0
254 1 13.524812060462425 0.013341731323003371 2.908809468330817 0 0 0
381 1 17.90522929744379 1.5369994173248407 1.4653564420352898 0 0 0
376 1 16.327646655652746 2.789560784795135 2.8327629746711898 0 0 0
378 1 16.50940706047613 0.06295255664200283 21.735211084901096 0 0 -1
382 1 19.23948276160139 0.08489582027399502 3.069687113624327 0 0 0
1 1 3.934412755771481 4.348464994890834 1.7383651368376132 0 0 0
156 1 5.282176706205932 5.543151852240351 0.24940006675313525 0 0 0
37 1 7.839748463324378 5.27871293859165 2.764530772041371 0 0 0
124 1 9.447049489239484 4.149925926992734 1.3093290851485073 0 0 0
282 1 10.749142006167174 5.536410952639468 21.75091292715839 0 0 -1
248 1 14.903101475337376 4.030931964477733 1.285215706495712 0 0 0
286 1 13.620395451412959 5.552082375315506 2.651341103635793 0 0 0
33 1 21.69053677774331 5.763169256454334 0.2741186968256706 -1 0 0
375 1 20.419682280021238 4.558922897802284 1.4343991409430086 0 0 0
414 1 19.36158204783773 5.715720856741907 3.2897951797920433 0 0 0
36 1 0.596368416012768 7.545781727861134 1.7337016521764907 0 0 0
35 1 2.578855459662016 8.249728731614427 0.48789889864300306 0 0 0
31 1 4.566511551685787 9.30911145388479 1.777589752056014 0 0 0
32 1 6.533350977211349 7.123361175684187 1.7504187576482588 0 0 0
159 1 7.827929285715493 8.155159105711522 21.762197725522327 0 0 -1
154 1 10.659566957122937 8.17456956315746 2.7947404264147893 0 0 0
285 1 12.11889874354964 6.820616899618633 1.4197431708768926 0 0 0
284 1 13.696670777127574 7.969214427094869 0.15960331994083557 0 0 0
413 1 18.086383858156793 6.74528017560885 1.4237724692911815 0 0 0
408 1 16.599378833103078 8.054719056603538 2.65696310083843 0 0 0
412 1 19.365331839517726 8.268055077706908 21.71599738456208 0 0 -1
407 1 20.82034115577299 9.483959969948105 1.4118645521136675 0 0 0
66 1 1.6100515177191963 12.249155784877146 1.4655356639817305 0 0 0
67 1 2.662994665988993 10.484310900580123 2.8170720521494355 0 0 0
63 1 0.31891693730899107 10.875048884851777 21.729385097598186 0 0 -1
187 1 5.690947061627903 10.694527734340609 0.18579444710742873 0 0 0
191 1 7.887788621780355 10.951583814901568 2.634709849949871 0 0 0
190 1 6.85050429537537 12.36233245139722 1.2621362823526125 0 0 0
158 1 9.47933078166879 9.435661210263433 1.1150338784593665 0 0 0
317 1 12.251353348105182 12.150673564072557 1.3628426084276952 0 0 0
314 1 10.884705714315636 10.806608131025424 21.64601735737814 0 0 -1
279 1 14.990642069030248 9.267203031924723 1.585474082883097 0 0 0
318 1 13.540432861214269 10.736571264490198 2.687588083834539 0 0 0
445 1 17.625315159614676 12.154362322425303 1.4976667238454269 0 0 0
442 1 16.41768126731712 10.709242367445839 0.13674438235010483 0 0 0
446 1 19.120416644312883 10.57441342577752 2.813559323863804 0 0 0
65 1 2.9619706433331894 13.596089411438344 0.1947145984597789 0 0 0
61 1 4.245848217305785 15.089451554669543 1.463939524594691 0 0 0
185 1 5.402799673019405 13.600677862014438 2.805031935847488 0 0 0
189 1 8.425522290000208 13.693338409003175 21.75532505247031 0 0 -1
184 1 9.634034456288626 15.107280630115982 1.3514457289963233 0 0 0
312 1 10.69803036177084 13.623657787037907 2.690478245603409 0 0 0
311 1 14.941100425857025 14.943254676848131 1.4471335180256224 0 0 0
440 1 16.352190861736403 13.53613114022103 2.781837332250425 0 0 0
441 1 0.08732753257715074 13.407796203933389 2.8568239148441466 1 0 0
439 1 20.198346684053412 14.786083269700079 1.621778399068283 0 0 0
444 1 18.872358423986764 13.586374306471528 0.03581009413234071 0 0 0
98 1 1.2693247862130035 17.60474260619956 1.2962703070906094 0 0 0
99 1 2.592139449037651 16.239510103503193 2.762319868235043 0 0 0
219 1 5.756817977123824 16.28379629081943 0.10153849041167007 0 0 0
222 1 7.056670596919995 17.704586878225346 1.3789497304333815 0 0 0
223 1 8.282210815230052 16.339779760422488 2.79509095046565 0 0 0
349 1 12.222437670881556 17.69162424252537 1.4877789428646333 0 0 0
346 1 11.034040722867275 16.363579524174764 21.77212927253964 0 0 -1
350 1 13.454026961840269 16.2946078150092 2.7820181801488695 0 0 0
477 1 17.686723561715805 17.563372976927983 1.5342023282861725 0 0 0
474 1 16.19013377259534 16.33720219527136 0.010036690736822465 0 0 0
478 1 18.94913777282718 16.254024614623525 2.812481705094913 0 0 0
93 1 0.1334206393831967 18.822324134889435 2.7986124877360212 0 0 0
217 1 5.527110509263573 19.072251569720635 2.748435068849231 0 0 0
92 1 4.150665898765466 20.632254939706392 1.3248662158410665 0 0 0
221 1 8.278108134932936 19.21346173116995 0.08444604556155845 0 0 0
216 1 9.58301089232338 20.481786503029003 1.4864624837345133 0 0 0
344 1 11.003679436229502 19.088713820312186 2.7853789698732565 0 0 0
343 1 15.088713696414837 20.576938240760093 1.4625940858793516 0 0 0
348 1 13.599477523349803 19.10167897336887 0.08493841419863896 0 0 0
472 1 16.315936494822626 19.017520303403334 2.845301734276125 0 0 0
471 1 20.44698909720701 20.317813445580455 1.6032817378763047 0 0 0
10 1 0.05047961244767904 0.1251780794749879 5.627048172704091 0 0 0
136 1 2.816814762431444 3.361529905984571 5.534809655553776 0 0 0
12 1 3.850272377314936 1.633238343610105 4.188798444733069 0 0 0
8 1 5.373648600650532 0.3373147604856702 5.469990339934347 0 0 0
133 1 8.259128424316518 2.7549802063087707 5.638475371107935 0 0 0
130 1 9.490034150017744 1.488426594619831 4.11959451888679 0 0 0
258 1 10.762712223671393 21.758773638732226 5.427417866462958 0 -1 0
249 1 15.027345488198447 1.4710457435926143 4.106972406686985 0 0 0
260 1 13.631794352358444 2.828318989503026 5.342846690245381 0 0 0
386 1 16.26632542228838 0.07175802556176099 5.337519886690628 0 0 0
377 1 20.563739586115663 1.5187258164038058 4.340308705907276 0 0 0
388 1 19.106965401924263 2.896013664255952 5.835229158260716 0 0 0
40 1 2.184095126243479 4.31725101355172 3.395423251554652 0 0 0
160 1 6.534174407545588 4.1866640678993825 4.691055190016167 0 0 0
290 1 10.865489806881104 5.688329644649771 5.437302905276327 0 0 0
251 1 12.248916667809857 4.390643473179988 4.056992637114774 0 0 0
379 1 17.768057810032786 4.218450139981856 4.3546030841276755 0 0 0
418 1 16.494935901086986 5.629300361958408 5.531494039680286 0 0 0
409 1 20.833253846090496 5.838811964556742 5.179123562439842 0 0 0
43 1 1.1309823351629722 6.496233275566487 3.8806018065068617 0 0 0
42 1 1.8713022662080625 8.991317637394689 4.574404850458336 0 0 0
155 1 7.6207923792143495 8.082541403187442 5.38469979443236 0 0 0
280 1 9.119874731661051 6.851625471609579 4.0114449446118305 0 0 0
281 1 14.987510830225723 6.849517177858235 4.06649721711939 0 0 0
292 1 13.717498308555852 8.19813709042525 5.318856769550608 0 0 0
422 1 19.77555801775649 7.984294974448328 5.654102969808569 0 0 0
34 1 21.77676131568496 10.646142752511462 5.524924618102708 -1 0 0
195 1 5.310364464913372 10.341141373667574 5.346291260793617 0 0 0
62 1 4.138977583972474 11.859238546951245 4.046355180916434 0 0 0
157 1 6.511579824336264 9.276756013102087 3.4699713257089178 0 0 0
283 1 12.12559415947839 9.469021272997876 3.9747436611904683 0 0 0
322 1 10.791834399682283 10.74975110108162 5.3560637534932445 0 0 0
313 1 15.043153554907844 12.056994671443414 4.040553080553657 0 0 0
411 1 17.873279765482938 9.09699268794653 4.24574709724728 0 0 0
287 1 16.512983527284906 10.602952720524833 5.394164784275677 0 0 0
71 1 20.452651492649277 11.911346004825376 4.1899736628698365 -1 0 0
64 1 1.3673699310434082 14.830303371141207 4.138592611495622 0 0 0
73 1 2.8777467902816425 13.465916241709932 5.373066992009087 0 0 0
188 1 6.827559954436004 14.86990557771575 4.213307314883961 0 0 0
197 1 7.985765567935678 13.534474138505079 5.5733983235912055 0 0 0
186 1 9.328265490322154 12.143812822564737 4.125514435454668 0 0 0
315 1 12.012512821048423 14.930479881432051 4.058459959571965 0 0 0
324 1 13.649632754426765 13.479208447337964 5.2594062874723635 0 0 0
443 1 17.765990609735507 14.74462063611517 4.086587817311933 0 0 0
452 1 19.24419310007952 13.385021144455983 5.308402055016044 0 0 0
103 1 21.694752763082217 16.154747805130317 5.456862850808664 -1 0 0
94 1 4.066935118472727 17.753637130589425 3.9690618637463455 0 0 0
227 1 5.283477130712963 16.275818460963556 5.213739592895536 0 0 0
218 1 9.697075601554783 17.78780567849264 4.135905769925578 0 0 0
354 1 10.72301604324072 16.25739528640285 5.406443723976759 0 0 0
345 1 15.013451018011768 17.5012545467111 4.19163209530545 0 0 0
482 1 16.345936791286434 15.994998888144826 5.349467823120474 0 0 0
473 1 20.319502696765866 17.643376882854085 4.0880296094211275 0 0 0
96 1 1.441533730224748 20.452098226019842 4.288858796878194 0 0 0
105 1 2.7861419308029913 18.97500365089031 5.471944203864444 0 0 0
229 1 7.975883989135554 19.3165260536044 5.284125321481664 0 0 0
2 1 6.744344787465667 20.79773193070755 3.9968561749031783 0 -1 0
347 1 12.3700382754683 20.40324221951326 4.293348147686185 0 0 0
356 1 13.58729075297038 18.812236168729537 5.3910077745079406 0 0 0
475 1 17.640906813424163 20.389588820693795 4.1188541022401 0 0 0
484 1 19.003999625331996 19.047704814711164 5.31698740445712 0 0 0
13 1 1.3659408879755763 1.7361784040022146 6.873741737565029 0 0 0
14 1 2.602133600040388 0.12820934566839093 8.065339729840888 0 0 0
11 1 0.21062119955067607 3.037910125564172 8.51628298345032 0 0 0
134 1 5.349267502671271 2.842501222699152 8.263476437730365 0 0 0
135 1 6.833028959004015 1.2914754231872918 7.01524647524371 0 0 0
256 1 10.989183711274746 2.7482899769085933 8.06285645032425 0 0 0
261 1 12.356291651178646 1.349525416941703 6.694217573241298 0 0 0
262 1 13.43126977825796 21.749268422128683 8.21103654206311 0 -1 0
389 1 17.56051049032375 1.270527426233601 6.924579710491766 0 0 0
384 1 16.211059627107513 2.7450897780968813 8.017421310878388 0 0 0
390 1 18.937412001353568 0.18188170350334076 8.466641798968086 0 0 0
163 1 4.959730473799268 4.266103149896859 6.602104101330638 0 0 0
167 1 8.04298333422346 5.595022482908179 7.9779315332051075 0 0 0
131 1 9.60627243667637 4.166999428453644 6.811229079529442 0 0 0
255 1 14.99717279673319 4.12170926199999 6.5586903203568125 0 0 0
294 1 13.626841393788766 5.364790653993702 8.16304850416684 0 0 0
417 1 19.436834674002405 5.876314973063288 8.549022310575795 0 0 0
383 1 20.458743161363792 4.271370497381869 7.153393194848594 0 0 0
166 1 4.933669849874327 7.947830517452747 8.176057197657906 0 0 0
165 1 6.302011726737616 6.447032278195193 6.602153334615201 0 0 0
164 1 6.547289508826512 9.35699030206291 9.306144517681457 0 0 0
161 1 9.426738995164962 9.39925611284234 6.6805513007159325 0 0 0
288 1 10.888717872273439 8.150517298084665 8.193683333916502 0 0 0
162 1 9.617985689517713 6.816089056056566 9.498188104888355 0 0 0
293 1 12.329146085414342 6.7804623585498245 6.773234748983175 0 0 0
421 1 18.041675438882372 7.007388737200285 6.901920895932976 0 0 0
416 1 16.309537089274766 7.9252400484484555 8.155275401489288 0 0 0
420 1 21.08101741809738 9.242409892936445 7.234827873041711 0 0 0
415 1 0.9624398488680677 9.34834578946609 9.181666485412169 1 0 0
75 1 2.6484699847938487 10.70501824745468 7.924810669258801 0 0 0
74 1 1.3594946160434498 12.295108366171482 6.737603882466852 0 0 0
38 1 3.6747873822029593 9.290000207412607 6.5434393331749865 0 0 0
199 1 8.096354393452302 10.834612256899051 8.223692789431622 0 0 0
198 1 6.70390472003836 12.02119637464765 6.747498594085634 0 0 0
194 1 9.409987319685309 12.152702429249054 9.601942479976268 0 0 0
325 1 12.192228722409146 12.20058664413044 6.77972938024634 0 0 0
419 1 15.049458067629537 9.429416102203662 6.752930590305824 0 0 0
326 1 13.724281342188519 10.810244130922717 8.009180464822787 0 0 0
321 1 14.931050627417212 12.24006692936095 9.525406588408854 0 0 0
450 1 17.945027995376655 12.1194281450132 6.782433526110931 0 0 0
458 1 19.02684228749878 10.514667679246267 8.086611198597526 0 0 0
68 1 4.06275384847986 14.815723618698133 6.82402654780772 0 0 0
193 1 5.285360903524558 13.380852699732518 8.111576130450802 0 0 0
192 1 9.288236193535537 14.995237397894456 6.815749088351561 0 0 0
320 1 10.82589549389082 13.500776618593767 8.060069712462784 0 0 0
319 1 15.001708918184544 14.578668000430728 6.769340354965572 0 0 0
448 1 16.42307443107938 13.332543462144551 7.974082617688747 0 0 0
69 1 21.728666156875686 13.515412268711982 8.17550886379244 -1 0 0
447 1 20.362988490764597 14.773554261119292 6.866967780204937 0 0 0
106 1 1.338348910393186 17.494234366652655 6.984752362455202 0 0 0
107 1 2.7218647993028973 16.13243053409117 8.249043797950435 0 0 0
230 1 6.72045619960808 17.72722963878206 6.6416806281666005 0 0 0
231 1 7.8618680782008274 16.35057411583857 8.149054564509482 0 0 0
357 1 12.085554259941865 17.65547029989969 6.687968471556683 0 0 0
358 1 13.567562660856435 16.30817423647066 7.93940263167098 0 0 0
485 1 17.549701450621555 17.687417308116544 6.520494843149201 0 0 0
486 1 18.97519701138534 16.26691586304176 7.860238498051047 0 0 0
101 1 21.639107138733472 19.088217022425688 8.18501596151553 -1 0 0
225 1 5.277579890805314 19.206903182500398 8.25442753269119 0 0 0
100 1 4.173249702886778 20.532175179704854 6.6901936110807245 0 0 0
137 1 8.181381042130866 21.727470981884718 8.378422649666408 0 -1 0
224 1 9.365400068493845 20.38869591814119 6.814647944806044 0 0 0
352 1 10.728119099154503 19.015619493102058 8.03169573340088 0 0 0
351 1 14.829831890136361 20.3236590634858 6.846632902783424 0 0 0
480 1 16.407921974634398 19.125273624401228 8.09970844650883 0 0 0
479 1 20.23565357245005 20.525364049844786 6.783868322972009 0 0 0
20 1 2.56036496524628 2.790322293331482 11.056207116679916 0 0 0
9 1 4.022349391148364 1.5370288494841355 9.589392909261317 0 0 0
141 1 5.093846960663364 0.10882043224743176 11.087635606312356 0 0 0
143 1 8.160478463177524 2.7759341733172773 11.046807853451163 0 0 0
132 1 9.511188647155716 1.4884770558609233 9.609883852240944 0 0 0
266 1 10.606867311965141 21.487147284351234 10.805761950665055 0 -1 0
269 1 12.116906598829035 1.2919444098059585 12.197675553420103 0 0 0
257 1 14.80519239164859 1.4885357469506828 9.36306677476144 0 0 0
268 1 13.41380828695387 2.69648104303234 10.977460525128384 0 0 0
394 1 16.050595164238295 0.3095085060845337 10.8328312028617 0 0 0
397 1 17.335286555753896 1.3861973815780406 12.256967530921255 0 0 0
385 1 20.571957520724567 1.4918621794019753 9.721740418360877 0 0 0
18 1 21.736332980542862 0.11588090122820308 11.101995575824501 -1 0 0
396 1 18.98574099247185 2.7129332971876763 10.995879416269636 0 0 0
44 1 1.4811634601979935 4.723514129149914 9.855106220553871 0 0 0
15 1 5.264785371771236 5.424732550705201 10.75564289070302 0 0 0
52 1 4.0334836625863355 4.117648275869254 12.24694435758084 0 0 0
171 1 6.859894446486962 4.081611447466921 9.54136064940854 0 0 0
138 1 9.537120628645265 4.278969318010985 12.311143254265863 0 0 0
298 1 10.841888812073318 5.586392770353867 10.870973712691526 0 0 0
259 1 12.165576144969378 4.126647284843634 9.459638506142676 0 0 0
263 1 14.829139753306398 4.403797055243798 12.151169966340706 0 0 0
387 1 17.738072838774467 4.116173930772355 9.564900214303067 0 0 0
426 1 16.32031103875744 5.59131555873545 10.780422706559886 0 0 0
48 1 21.222627847812625 5.60675446221502 10.645111173243484 -1 0 0
391 1 20.165564223024074 4.2299786175316685 12.21699393510102 0 0 0
41 1 2.4941633908653156 8.093507970548753 10.593230457554984 0 0 0
50 1 1.1344835026298852 6.87482845838233 12.010711915138463 0 0 0
39 1 3.565721270951921 6.465935825925045 9.477198521097563 0 0 0
173 1 8.219985043002769 8.17646856329655 10.707624217131439 0 0 0
174 1 6.708553758322493 6.881767477031248 12.032892701080451 0 0 0
301 1 12.134537496539687 6.97060542564539 12.284722621917865 0 0 0
168 1 9.423295015512565 9.566826746015144 12.217461307191279 0 0 0
289 1 14.852049182401748 6.720439775259417 9.461011392000945 0 0 0
300 1 13.449733218161072 8.14731078632994 10.778497406857829 0 0 0
429 1 17.706400686073575 6.905139115925546 12.287527196159068 0 0 0
79 1 17.81731207016441 9.277853841294863 9.386838067625554 -1 0 0
428 1 19.157537681905538 7.750238962106524 10.663341499694239 0 0 0
82 1 1.4367966838021908 12.090108621943727 12.216977072415988 0 0 0
70 1 3.831396650525764 12.035334561476343 9.529093342728354 0 0 0
45 1 3.902049178082233 9.660593002300873 11.840704295830395 0 0 0
203 1 5.444453129150655 10.977300505502438 10.92248701860698 0 0 0
206 1 6.793938802341524 12.160059284224994 12.184920687830187 0 0 0
291 1 12.172765466709997 9.595527431461214 9.433410771884947 0 0 0
330 1 10.869234236398789 11.056159562269816 10.912701308682573 0 0 0
333 1 12.28040509409914 12.49477521524977 12.12918518896753 0 0 0
295 1 14.89343992606729 9.411579697234222 12.06346096659449 0 0 0
461 1 16.345954317202995 10.699922179480406 10.674735997690878 0 0 0
460 1 17.700064087310285 12.155580919523727 12.03431259975028 0 0 0
454 1 0.1234163125614458 10.585469762555135 10.984772262678641 1 0 0
449 1 20.372224985610647 9.499306076948915 12.109600407402485 0 0 0
423 1 20.525630440794867 11.902906492728402 9.449624953205841 0 0 0
72 1 1.1403153553500274 14.813804210594432 9.497844408976462 0 0 0
81 1 2.567394702418145 13.629359267102469 10.844764565316032 0 0 0
76 1 3.889615961575454 14.94510438984917 12.31037363908749 0 0 0
196 1 6.443162667069259 14.767861574158893 9.427676976760672 0 0 0
205 1 8.11628512546293 13.588601667931437 10.933914529653554 0 0 0
200 1 9.401973320574163 15.09363574579893 12.358647980368453 0 0 0
323 1 12.295241466284182 15.106225700121161 9.37108986442233 0 0 0
332 1 13.596723322193595 13.732229295756042 10.761684227079884 0 0 0
327 1 14.950972826914366 15.143234912130607 12.067906644023926 0 0 0
451 1 17.81913137995057 14.937389915730538 9.33870063303606 0 0 0
453 1 19.165425153526368 13.416133591587974 10.6445744061255 0 0 0
455 1 20.3381187505703 14.900480655257963 12.133804773050871 0 0 0
114 1 1.2378794207926587 17.574225179795224 12.23258081485658 0 0 0
102 1 3.928309367561715 17.623640296736916 9.53031168429802 0 0 0
235 1 5.164712141740601 16.157449791784767 11.009287184449855 0 0 0
238 1 6.510673709439465 17.761800833988616 12.23194385132 0 0 0
226 1 9.279175273336675 17.642232558098392 9.463462562063565 0 0 0
362 1 10.726434613262024 16.306254157504622 10.78008483255296 0 0 0
365 1 12.116698627906592 17.57186184832039 12.069245610484767 0 0 0
353 1 14.816496186540977 17.780662494993013 9.315068604050051 0 0 0
490 1 16.374549880743142 16.44211734869941 10.56825146516378 0 0 0
493 1 17.760596787723088 17.819867943321363 12.145024385606328 0 0 0
111 1 21.64704851073164 16.352678212237027 10.676317526437506 -1 0 0
481 1 20.297112446429516 17.681841949127772 9.3063112518681 0 0 0
104 1 1.0712041914515942 20.545813297834606 9.64242159380694 0 0 0
113 1 2.3783553751147135 19.051116386120448 10.983222179544105 0 0 0
108 1 3.771128172370472 20.470853806201085 12.23218909972569 0 0 0
228 1 6.533561037244035 20.473700033524516 9.70229593667362 0 0 0
237 1 7.961651488340442 19.054656920981326 10.93820977808002 0 0 0
355 1 12.19786594869647 20.192816446204446 9.567260012322611 0 0 0
232 1 9.304528951667002 20.196020379574556 12.508355108383876 0 0 0
364 1 13.441568732807387 18.935668095517954 10.926006536629233 0 0 0
359 1 14.993589414716736 20.218358815101453 12.16915671594003 0 0 0
483 1 17.518847601638168 20.472780844410217 9.647003974448184 0 0 0
492 1 19.111395680292755 18.96954991445025 10.784955356980882 0 0 0
487 1 20.317034124630315 20.451583153208198 12.291411481966705 0 0 0
21 1 1.252645440394193 1.5095276950833845 12.501283771094904 0 0 0
22 1 2.646044986664105 0.1581117348820929 13.732936200861984 0 0 0
17 1 3.9232382351341033 1.4774228852972415 15.10387701928777 0 0 0
139 1 5.367071523027376 2.9440227607146854 13.635857760007555 0 0 0
144 1 6.576935101226944 1.445477175421855 12.283799769931495 0 0 0
145 1 7.83401820217148 21.73488011858771 13.581117736641898 0 -1 0
140 1 9.480381861955385 1.4234366483951277 14.835418065496857 0 0 0
264 1 10.885311825127173 2.7933692839599678 13.519656222965667 0 0 0
265 1 15.019886266643653 1.5073075631846793 14.995149790535637 0 0 0
270 1 13.837917024230302 0.08588008840886437 13.508240470966205 0 0 0
392 1 16.242012864282554 2.9514379465406715 13.55856341572489 0 0 0
16 1 21.631417444270106 2.8629005549165742 13.721922845693172 -1 0 0
393 1 20.32416568288634 1.5178158778256865 15.092062308272633 0 0 0
398 1 18.947328373384924 0.2100432787211206 13.706854480939862 0 0 0
19 1 1.3964605295728076 4.315035411523217 15.061263389015027 0 0 0
51 1 2.5849009152524314 5.709302562121254 13.508705586717223 0 0 0
142 1 6.670020596861068 4.33918250998216 14.921950642976352 0 0 0
175 1 8.086016893485375 5.737936929347967 13.643763577296808 0 0 0
267 1 12.291451799386179 4.020906357698327 14.91361685259424 0 0 0
302 1 13.60903498927111 5.60755886877141 13.609318428755406 0 0 0
395 1 17.64004867921395 4.274449425911612 15.004109248369922 0 0 0
430 1 18.91634307709587 5.464894971489103 13.558335864977876 0 0 0
46 1 21.745751045599842 8.178784422410065 13.569490953861441 -1 0 0
47 1 3.974492959760257 6.946950734986413 14.842996179953657 0 0 0
169 1 5.20480980753257 8.168993789825983 13.126352004232942 0 0 0
170 1 9.5659212726845 6.834039135389191 15.052712693270507 0 0 0
296 1 10.996597921475088 8.518605896990916 13.559610539377097 0 0 0
297 1 14.779610222335679 6.929209930800508 15.170679964148796 0 0 0
424 1 16.22246900864878 8.157913622316569 13.613301072385655 0 0 0
49 1 20.40967222605941 6.886040443929335 14.880038130683614 -1 0 0
87 1 1.1967181126050057 9.60299732603527 14.818755221720473 0 0 0
83 1 2.7359234919699027 10.984908955981227 13.542652865744026 0 0 0
78 1 4.006163121434083 12.222335819692697 14.91476913447577 0 0 0
172 1 6.676433472992672 9.472082447033685 14.838617510151163 0 0 0
207 1 8.06793695341211 10.86216449806693 13.643791455125124 0 0 0
202 1 9.485986579154776 12.19329960991687 14.933286349241657 0 0 0
299 1 12.239011953245502 9.903910606361592 15.107390497987174 0 0 0
334 1 13.682291006622698 11.033137502928902 13.543304069751557 0 0 0
329 1 15.175004345743742 12.379204901765407 14.901868262660923 0 0 0
427 1 17.585201589838476 9.516148912964004 14.79530648270459 0 0 0
462 1 18.97695829817884 10.893058298276253 13.529330902579805 0 0 0
457 1 20.24838158577637 12.235485220375589 14.821179186519423 0 0 0
80 1 1.2073120432489615 14.753375703045991 14.838580278017883 0 0 0
201 1 5.331247417142313 13.656322658115055 13.676749214167339 0 0 0
204 1 6.831257701858611 14.903023560088869 15.089811003132775 0 0 0
328 1 10.70588102384023 13.6068762213028 13.674576276753287 0 0 0
331 1 12.358367482403192 14.97379442474621 14.959814909161825 0 0 0
456 1 16.250421625723558 13.661406592058269 13.362635533203798 0 0 0
459 1 17.790787690097336 14.86958323687388 14.955748820216524 0 0 0
77 1 21.642668455102534 13.43077934704977 13.38425481949601 -1 0 0
115 1 2.59421026379511 16.39093891328898 13.787433264897418 0 0 0
110 1 4.3478809176892685 17.6258410179551 14.911573225796717 0 0 0
239 1 7.980705577734379 16.32797773279826 13.70783075741834 0 0 0
234 1 9.43679136288153 17.737779166976775 15.147562344126248 0 0 0
366 1 13.621105417130051 16.372105578404884 13.38038604072324 0 0 0
361 1 15.088540015403847 17.69141221302055 14.732991524193407 0 0 0
494 1 19.000210484650246 16.36342609080219 13.513428561238069 0 0 0
489 1 20.52647485820103 17.639408372070857 14.920212445112835 0 0 0
112 1 1.4008204272384779 20.450967908311753 15.032393556201026 0 0 0
233 1 5.205230406925103 19.342822084100177 13.607596166447035 0 0 0
236 1 6.51095593115888 20.433452256764568 15.059960237890404 0 0 0
360 1 11.082794722696507 18.907408102193678 13.621873175529196 0 0 0
363 1 12.497278254919221 20.54486557151188 14.814017815709988 0 0 0
488 1 16.53341157953273 19.20880133475468 13.705576887879696 0 0 0
491 1 17.822131717965707 20.56111827767866 15.133824340094458 0 0 0
109 1 21.658478785383046 19.21846778885865 13.73418162665044 -1 0 0
29 1 1.1318746522630803 1.448648681339954 17.806226376170805 0 0 0
28 1 2.562005127364055 2.7120749687792145 16.48202411315896 0 0 0
26 1 21.70631702275864 0.10995487895072781 16.387773084937308 -1 0 0
149 1 5.379004673180281 0.16196944977749317 16.502862538740374 0 0 0
152 1 6.821687209010026 1.424719262656683 17.626119976254948 0 0 0
151 1 7.960235698376296 2.787777604405089 16.21271640175053 0 0 0
277 1 12.214018064596372 1.5890893043563898 17.586930854779595 0 0 0
274 1 11.029649665853142 0.24617387129196633 16.096589878101565 0 0 0
276 1 13.646910387808955 2.656537534401775 16.34691120994709 0 0 0
405 1 17.923369075447056 1.6378351008090706 17.782302524967783 0 0 0
402 1 16.59370180022385 0.2642328521193029 16.457074564508105 0 0 0
404 1 19.087424113053626 3.0510137053818194 16.35734020909513 0 0 0
56 1 0.07018969131032549 5.868211648077246 16.2715701401337 0 0 0
23 1 3.9165835428072735 4.046179611166303 17.764138879195556 0 0 0
179 1 5.26396107241526 5.640286738206347 16.407501916414628 0 0 0
146 1 9.383030649632378 4.27697472394483 17.52677363019928 0 0 0
306 1 11.057662665589126 5.550069981902085 16.346896493056466 0 0 0
271 1 14.9806281217869 4.180008761758174 17.771035878522664 0 0 0
434 1 16.23784848610407 5.597784533476735 16.4676194592529 0 0 0
399 1 20.38818781003949 4.5078406054961 17.774526529789014 0 0 0
59 1 1.6685733290673634 6.967758360697774 17.70838866986594 0 0 0
58 1 2.652576380780919 8.325542104696002 16.159644834181098 0 0 0
181 1 8.10948173049588 8.210738619165618 16.438438637139246 0 0 0
182 1 6.721432503615117 6.707383200731606 17.752187874162306 0 0 0
309 1 12.276440481561357 7.066577983791523 17.687581714970474 0 0 0
308 1 13.577298188572453 8.422008100951293 16.27649044611662 0 0 0
437 1 17.664029819033065 6.990339311735773 17.63971722663523 0 0 0
425 1 19.02348469036189 8.333249644249557 16.23299398227267 0 0 0
431 1 21.664889132645254 10.967808116032922 16.328503169905307 0 0 0
53 1 3.9938257989420642 9.551108941841285 17.69365645576211 0 0 0
211 1 5.4785322719582545 10.977508489906466 16.404843358436093 0 0 0
214 1 6.8780494253625655 12.259825223823933 17.9260987660411 0 0 0
176 1 9.458700225343634 9.592012027347735 17.746691305425685 0 0 0
338 1 10.955093146466659 10.93269251446562 16.397354510263284 0 0 0
341 1 12.476127756633886 12.199267361284585 17.626116845010014 0 0 0
303 1 15.019744635735012 9.626147399724749 17.72095360358342 0 0 0
466 1 16.420371949118177 10.871987668539433 16.54176357193563 0 0 0
469 1 17.79247826903991 12.173342924969324 17.835469146587094 0 0 0
436 1 20.415155737775542 9.641827178190384 17.792232931346987 0 0 0
90 1 1.4702794694314878 12.193151772899148 17.743732976874732 0 0 0
89 1 2.6073839729527677 13.5448244430652 16.309650281992212 0 0 0
84 1 4.028155664216487 14.861590673392271 17.725873796105844 0 0 0
213 1 8.175626248425552 13.392431810887947 16.478975130532522 0 0 0
208 1 9.636348764770668 14.865836923518815 17.664273492538793 0 0 0
335 1 15.119257222854948 15.145530021446422 17.634985528116182 0 0 0
340 1 13.812563922428318 13.7516228783953 16.34167323012445 0 0 0
468 1 19.094837398423984 13.62086271983411 16.42229223485627 0 0 0
463 1 20.561825410479514 15.001006715185252 17.69514777977552 0 0 0
122 1 1.5262363656222973 17.376250622376116 17.782148344706833 0 0 0
119 1 21.7320310017628 16.309000774299783 16.250814725940934 -1 0 0
243 1 5.587138420179817 16.17700727953431 16.48109615772516 0 0 0
246 1 6.866045051608137 17.615928763919072 17.810122225066248 0 0 0
370 1 11.033084254249777 16.406120868297922 16.270845475063084 0 0 0
373 1 12.390461856063789 17.869499918969986 17.728063803108938 0 0 0
498 1 16.427366359360192 16.489084443117957 16.090666235728506 0 0 0
501 1 17.526716308326314 17.69947787054105 17.980451272887226 0 0 0
121 1 2.987021146714881 18.86552528647239 16.354410147230595 0 0 0
116 1 3.9970463520224206 20.555830474986127 17.869393271259796 0 0 0
245 1 7.951294898048982 19.21919176111934 16.479941873950548 0 0 0
240 1 9.707207372131442 20.630632305786403 17.61391478574436 0 0 0
372 1 13.74986791075965 19.296872360228786 16.335785834768878 0 0 0
367 1 15.058181173908249 20.570202242567124 17.812440626975974 0 0 0
500 1 19.045633251567903 18.944172079854944 16.55814685399835 0 0 0
495 1 20.485249038639548 20.307888591787265 17.729812857256967 0 0 0
30 1 2.5776296940590875 0.2050847418374503 19.265474358985884 0 0 0
3 1 0.11907437337767017 21.771441310576023 0.17394751160196775 0 -1 0
24 1 21.493205521022723 2.9322615807519314 19.216150865308975 -1 0 0
25 1 3.928896942430088 1.5020617183115645 20.553227719460757 0 0 0
147 1 5.4845579043505035 2.6841275497110475 19.038094758503224 0 0 0
153 1 8.052421345426207 0.01515259136058944 18.847044318129853 0 0 0
250 1 10.764914677412749 21.76148657628391 21.687913302804862 0 -1 -1