LAMMPS (10 Sep 2025)
OMP_NUM_THREADS environment is not set. Defaulting to 1 thread.
  using 1 OpenMP thread(s) per MPI task
Loaded 1 plugins from C:\Users\lmike\AppData\Local\LAMMPS 64-bit 10Sep2025 with GUI\plugins
# LAMMPS input generated from LammpsInputFile with pymatgen v2025.10.7

# STYLES
units metal
atom_style atomic

# SET UP CALCULATION
read_data starting_config.dat
Reading data file ...
  orthogonal box = (0 0 0) to (21.781566 21.781566 21.781566)
  1 by 1 by 1 MPI processor grid
  reading atoms ...
  502 atoms
  read_data CPU = 0.004 seconds
pair_style sw
pair_coeff * * Si.sw Si
Reading sw potential file Si.sw with DATE: 2007-06-11
velocity all create 1000 631113

# CALCULATION PARAMETERS
fix f1 all nvt temp 1000.0 1000.0 $(100.0*dt)
fix f1 all nvt temp 1000.0 1000.0 0.10000000000000000555
thermo 100000
thermo_style custom step temp press spcpu cpuremain

# RUN CALC AND WRITE OUTPUTS
dump d1 all custom 100 state_dump id type x y z vx vy vz
run 10000000
Neighbor list info ...
  update: every = 1 steps, delay = 0 steps, check = yes
  max neighbors/atom: 2000, page size: 100000
  master list distance cutoff = 5.77118
  ghost atom cutoff = 5.77118
  binsize = 2.88559, bins = 8 8 8
  1 neighbor lists, perpetual/occasional/extra = 1 0 0
  (1) pair sw, perpetual
      attributes: full, newton on
      pair build: full/bin/atomonly
      stencil: full/bin/3d
      bin: standard
Per MPI rank memory allocation (min/avg/max) = 3.116 | 3.116 | 3.116 Mbytes
   Step          Temp          Press          S/CPU         CPULeft    
         0   1000          -981.12295      0              0            
    100000   999.46718     -14417.022      594.6725       16647.819    
    200000   1101.7138     -12025.756      630.41865      16012.442    
    300000   1004.0964     -14010.322      808.25966      14566.398    
    400000   982.85396     -13364.25       721.81894      14137.105    
    500000   976.24699     -11357.211      696.38643      13920.245    
    600000   1025.957      -11462.427      700.24135      13715.421    
    700000   987.5674      -14171.962      706.49687      13511.516    
    800000   1048.2796     -12309.809      695.24436      13349.547    
    900000   992.94154     -15225.015      697.94284      13185.985    
   1000000   991.13462     -12791.759      693.13077      13035.432    
   1100000   1107.0659     -12455.828      699.99861      12874.568    
   1200000   992.14419     -13838.125      694.43456      12725.099    
   1300000   983.67699     -10962.534      712.99962      12551.378    
   1400000   945.93784     -13912.837      709.71001      12386.432    
   1500000   1030.442      -12987.99       704.84077      12230.208    
   1600000   967.32487     -13327.72       698.8229       12082.191    
   1700000   1038.0783     -12101.917      707.15987      11926.516    
   1800000   1008.0182     -14611.367      708.05061      11771.616    
   1900000   1047.3203     -11387.701      695.16588      11629.314    
   2000000   975.66175     -12855.672      706.69883      11477.467    
   2100000   943.35514     -10953.183      707.58802      11325.937    
   2200000   1048.9736     -13251.508      703.04703      11178.57     
   2300000   981.29558     -11239.777      696.47555      11036.142    
   2400000   947.28707     -14055.442      713.2122       10882.949    
   2500000   956.72952     -13514.727      707.68108      10734.082    
   2600000   965.24268     -10855.829      705.01792      10587.316    
   2700000   964.20937     -11327.031      706.16666      10440.291    
   2800000   975.38418     -12658.636      701.34683      10296.155    
   2900000   1002.2087     -12891.442      705.47971      10150.081    
   3000000   1001.4401     -14979.507      692.99681      10010.253    
   3100000   946.08184     -13078.015      706.26041      9864.105     
   3200000   1010.5801     -14312.692      707.45886      9717.7319    
   3300000   985.51619     -14219.811      706.19706      9572.176     
   3400000   1042.12       -12085.244      703.61414      9427.8616    
   3500000   1019.6699     -13827.462      702.42264      9284.1202    
   3600000   984.22165     -13733.771      699.14269      9141.6426    
   3700000   999.04348     -13214.194      696.90724      8999.9162    
   3800000   1050.4751     -13855.547      702.37678      8856.2738    
   3900000   991.3091      -14183.404      707.16818      8711.1877    
   4000000   1006.3062     -12627.12       710.2582       8565.3626    
   4100000   1057.3622     -14124.65       701.3526       8422.3556    
   4200000   1030.8503     -12698.553      722.46013      8273.6162    
   4300000   956.06272     -13609.283      708.16966      8129.0595    
   4400000   1006.3821     -13152.123      708.37881      7984.602     
   4500000   1059.399      -10337.955      709.65504      7839.9803    
   4600000   1073.2725     -12350.373      706.39758      7696.2827    
   4700000   1007.6371     -13405.72       716.54895      7550.4144    
   4800000   1038.9073     -11585.345      706.99061      7406.853     
   4900000   972.63439     -12741.691      706.63306      7263.4525    
   5000000   960.72171     -13445.773      710.00805      7119.4547    
   5100000   1010.1887     -12058.705      704.57932      6976.6233    
   5200000   1017.0612     -11446.156      705.62166      6833.633     
   5300000   977.76739     -11675.942      703.24847      6691.1148    
   5400000   1033.4825     -10857.461      706.69913      6548.017     
   5500000   943.64827     -13137.409      714.03862      6403.7872    
   5600000   1068.6842     -14765.362      714.95108      6259.5663    
   5700000   973.25456     -13919.84       710.18766      6116.2058    
   5800000   951.31686     -12888.586      714.6425       5972.2977    
   5900000   1004.3104     -12198.665      723.9738       5827.2711    
   6000000   1000.8956     -14501.256      713.74962      5683.7936    
   6100000   992.15845     -14677.343      710.66222      5540.8158    
   6200000   970.47163     -14160.106      699.72229      5399.2595    
   6300000   1025.6031     -13876.794      709.65759      5256.4849    
   6400000   1032.2811     -11623.815      711.62184      5113.5498    
   6500000   984.4847      -14896.041      714.93769      4970.3379    
   6600000   1013.8323     -14795.533      703.44401      4828.4045    
   6700000   965.63625     -14527.542      690.9196       4687.7337    
   6800000   977.36908     -13377.926      708.56074      4545.2475    
   6900000   946.5236      -14106.108      699.71133      4403.6026    
   7000000   976.46207     -12818.014      712.12034      4260.8541    
   7100000   1058.1569     -12919.733      703.54529      4118.87      
   7200000   968.65166     -13529.222      708.04279      3976.5306    
   7300000   982.10383     -12310.684      707.86909      3834.2343    
   7400000   1039.9812     -13141.554      696.45603      3692.7792    
   7500000   986.0595      -14481.379      710.18191      3550.3422    
   7600000   1042.1185     -13519.832      703.56514      3408.3663    
   7700000   1039.3363     -12284.015      700.43898      3266.5757    
   7800000   946.26467     -14592.46       708.96765      3124.2757    
   7900000   1009.0702     -12918.119      705.59601      2982.1866    
   8000000   964.21896     -14137.127      710.89082      2839.8426    
   8100000   995.63215     -11986.715      705.82357      2697.7769    
   8200000   1004.7942     -10789.046      702.04788      2555.8879    
   8300000   969.91202     -12853.332      699.96217      2414.0725    
   8400000   1007.4522     -13733.901      712.30014      2271.7608    
   8500000   1047.261      -11973.75       707.02468      2129.6792    
   8600000   993.57284     -12957.502      707.36057      1987.6016    
   8700000   954.65043     -13333.739      708.10068      1845.5182    
   8800000   973.37376     -14653.305      719.57632      1703.1472    
   8900000   1013.9794     -13042.001      708.85451      1561.1125    
   9000000   973.50461     -14452.786      707.45149      1419.1302    
   9100000   1039.2325     -14291.181      703.78796      1277.2345    
   9200000   986.38286     -15812.564      709.68774      1135.2319    
   9300000   1033.7237     -14855.318      701.87956      993.37085    
   9400000   1015.2335     -14057.768      709.53928      851.39858    
   9500000   1013.0823     -14969.425      714.67022      709.39487    
   9600000   1059.776      -14984.363      719.97511      567.39151    
   9700000   1019.7681     -14203.265      713.05658      425.49394    
   9800000   1073.5041     -13614.103      746.47678      283.50204    
   9900000   1035.4332     -15151.788      668.58367      141.83       
  10000000   922.54329     -14168.753      680.11611      0            
Loop time of 14188.2 on 1 procs for 10000000 steps with 502 atoms

Performance: 60.896 ns/day, 0.394 hours/ns, 704.811 timesteps/s, 353.815 katom-step/s
99.5% CPU use with 1 MPI tasks x 1 OpenMP threads

MPI task timing breakdown:
Section |  min time  |  avg time  |  max time  |%varavg| %total
---------------------------------------------------------------
Pair    | 13925      | 13925      | 13925      |   0.0 | 98.15
Neigh   | 6.7944     | 6.7944     | 6.7944     |   0.0 |  0.05
Comm    | 39.187     | 39.187     | 39.187     |   0.0 |  0.28
Output  | 142.74     | 142.74     | 142.74     |   0.0 |  1.01
Modify  | 59.816     | 59.816     | 59.816     |   0.0 |  0.42
Other   |            | 14.31      |            |       |  0.10

Nlocal:            502 ave         502 max         502 min
Histogram: 1 0 0 0 0 0 0 0 0 0
Nghost:           1402 ave        1402 max        1402 min
Histogram: 1 0 0 0 0 0 0 0 0 0
Neighs:              0 ave           0 max           0 min
Histogram: 1 0 0 0 0 0 0 0 0 0
FullNghs:        17484 ave       17484 max       17484 min
Histogram: 1 0 0 0 0 0 0 0 0 0

Total # of neighbors = 17484
Ave neighs/atom = 34.828685
Neighbor list builds = 9608
Dangerous builds = 0
write_data FINAL_STRUCTURE
System init for write_data ...
Total wall time: 3:56:28
