LAMMPS data file via write_data, version 10 Sep 2025, timestep = 10000000, units = metal

522 atoms
1 atom types

0 21.763403 xlo xhi
0 21.763403 ylo yhi
0 21.763403 zlo zhi

Masses

1 28.085

Atoms # atomic

7 1 1.4262570877318665 1.0638271919738653 1.1042316720296057 0 0 0
135 1 5.467498105959173 2.6456492323599816 2.585163662396634 0 0 0
514 1 6.831208464501671 1.418914340242031 1.1211827782405122 0 0 0
258 1 10.93520766466988 2.6164628975061155 2.520388687007398 0 0 0
263 1 12.197979936760266 1.2324176305475356 1.2329190045268972 0 0 0
391 1 17.66994941775468 1.2746950794754945 1.1112232099209973 0 0 0
386 1 16.31239331372747 2.603729982049924 2.5943311638975213 0 0 0
2 1 21.433462174362724 2.3294610859243754 2.098766499177615 -1 0 0
392 1 18.90952886834159 21.647746460344806 2.692814605072483 0 -1 0
515 1 2.6722987139203873 5.363097124656362 2.261839201586369 0 0 0
1 1 4.12107245414146 3.907894073635692 1.11263694923907 0 0 0
168 1 8.094978472829455 5.217929736288225 2.394203218488977 0 0 0
129 1 9.504469882879123 3.9550928630133324 0.9636144950424925 0 0 0
257 1 14.955663388907785 4.084077582764306 1.2650317234353639 0 0 0
296 1 13.556976266571915 5.430211082827186 2.6864342759163002 0 0 0
420 1 16.3598763869111 5.287656420519933 21.541161397746993 0 0 -1
424 1 18.935423477684637 5.384453742444342 2.6142662885799473 0 0 0
385 1 20.16796303295707 4.101527376120207 1.1385119068921852 0 0 0
39 1 1.2216468428691791 6.8193988663236125 1.022731934966254 0 0 0
162 1 4.578335240775773 7.230516052489486 1.8524975381107407 0 0 0
167 1 6.95582003173861 6.907427364220649 1.0779842895330216 0 0 0
517 1 7.502698197632232 8.951081805560476 2.5473689201214795 0 0 0
290 1 11.116958373703781 8.353629209012032 2.6538082308763644 0 0 0
295 1 12.334706598324935 6.792409673108568 1.2671375479253766 0 0 0
423 1 17.48927148269115 6.605940656763156 1.3059591949936946 0 0 0
418 1 16.267531952735514 8.106409986660008 2.5169543117465727 0 0 0
34 1 0.05603758141410253 7.901157752409546 2.7416138119519506 0 0 0
422 1 18.817813486489946 8.180887498346873 0.0647843307660132 0 0 0
72 1 2.37988217997698 10.715099588729224 2.6431438855136307 0 0 0
71 1 1.1124796971948623 12.313428615169313 1.4029029138750875 0 0 0
33 1 3.9967319695902535 9.811167274962484 1.2630590387918577 0 0 0
174 1 8.186406734518796 11.297456498835842 2.375909824701059 0 0 0
161 1 9.902774605351526 9.809271372925226 1.2978836645034906 0 0 0
327 1 12.364238715382198 12.368211154425142 1.1766963121171625 0 0 0
289 1 14.882370395656743 9.500326605220646 1.2670526582928316 0 0 0
328 1 13.65744241005878 10.909852459800895 2.526238458823494 0 0 0
455 1 17.538119978466725 12.123030031594729 1.4453844124412767 0 0 0
417 1 20.33388018239537 9.330041268115263 1.450566566615502 0 0 0
456 1 19.03142344416726 10.763257523671964 2.820469243325367 0 0 0
70 1 2.6656941316637845 13.526900249789376 0.16570257640277575 0 0 0
65 1 3.9690213741843623 15.03965005869158 1.2241753934052717 0 0 0
194 1 5.439734651031508 13.828852728025685 2.561665756633131 0 0 0
199 1 6.843189892731329 12.636338845959422 0.9759299258005179 0 0 0
198 1 8.335595573200086 13.907282341770449 21.567605792706235 0 0 -1
193 1 9.656750899273991 15.053054482428793 1.363462388690708 0 0 0
322 1 10.940077575511575 13.560325174566488 2.7532416923077525 0 0 0
321 1 14.932237066210337 14.968931569539992 1.3810797152846943 0 0 0
450 1 16.2200277083088 13.589283290578782 2.7436189780957245 0 0 0
66 1 21.57341116558694 13.600286761520623 2.976669805212319 -1 0 0
449 1 20.42401216164389 14.893435333504414 1.4468351817560188 0 0 0
454 1 18.99717923650784 13.6239563353841 0.1103551501348008 0 0 0
103 1 1.288625159923316 17.552469314324295 1.380351742897912 0 0 0
104 1 2.5822131510704396 16.358000534861965 2.679566290987822 0 0 0
231 1 6.863170073129433 17.720118607103565 1.3775458040070117 0 0 0
232 1 8.363656171361127 16.498095849482354 2.6683572889708578 0 0 0
359 1 12.271532207067045 17.687400681568143 1.3664631247861458 0 0 0
360 1 13.695632100439449 16.508079770660128 2.7982771452053115 0 0 0
487 1 17.692921831248963 17.60535566601765 1.3132285589085906 0 0 0
488 1 19.045262918348634 16.333737555486238 2.742300693690972 0 0 0
100 1 21.754053805268004 16.132282521130815 0.03321414783461552 -1 0 0
8 1 2.6729165981710317 21.555483287073315 2.5344387321898423 0 -1 0
102 1 2.940387599716773 18.899173701807232 0.15934418335526956 0 0 0
98 1 21.74316168224908 19.020732845009263 2.595161225227653 -1 0 0
226 1 5.52840703504085 18.89942846310358 2.8146509362814682 0 0 0
97 1 4.214457243628832 20.354257632510066 1.3824318519524903 0 0 0
136 1 8.197347847915765 0.05293221844832274 2.4872992955904176 0 0 0
225 1 9.58054204880714 20.33896042977061 1.3334317935367312 0 0 0
354 1 11.059277860002329 19.12604225914994 2.770374525634789 0 0 0
264 1 13.619205693069407 0.01466958183494782 2.503740618631754 0 0 0
353 1 15.103470379966561 20.403089328878405 1.3329170686970615 0 0 0
482 1 16.281358592956153 18.915586817307403 2.6080174032609422 0 0 0
388 1 16.342846971756153 21.744234762324957 21.634568095287694 0 -1 -1
481 1 20.222292044618513 20.261194796249328 1.2523904128691516 0 0 0
14 1 1.773956817501868 1.7388821660350426 4.399454759027271 0 0 0
3 1 4.182761284396358 1.0484819245400623 3.875637219938416 0 0 0
140 1 5.561272939505947 0.10254292707346124 5.4667535985784035 0 0 0
142 1 8.335090957442919 2.757795531400277 5.678671657898437 0 0 0
131 1 9.54385566725049 1.3653049630773042 4.0872167880245875 0 0 0
268 1 10.881704112984796 21.73846707201226 5.55190397511101 0 -1 0
521 1 14.971602701313186 1.2746481790206354 3.946499928256758 0 0 0
259 1 13.567246235950817 2.5143118502941175 5.482055714743317 0 0 0
398 1 18.847067395700392 2.7601916536356423 5.202319508006146 0 0 0
387 1 20.28376006884357 1.3601979619090871 3.881788034037061 0 0 0
5 1 1.007732504922129 3.790514137196538 3.279733793181513 0 0 0
163 1 3.217916253747457 5.57836316024385 4.480230078970138 0 0 0
513 1 4.523962098827857 3.7815022552026085 5.11992283044809 0 0 0
133 1 6.899523855429806 4.018964439540284 4.03115406829377 0 0 0
172 1 6.761666859750624 6.130121567582067 5.1189692035500105 0 0 0
270 1 10.993712115878063 5.2496349369890964 5.308272366572257 0 0 0
261 1 12.216640920993962 3.9869233842926217 3.9690957954659023 0 0 0
389 1 17.52408627564443 4.053097567838777 3.8282848938046095 0 0 0
428 1 16.141507788547376 5.268234944631272 5.338120954246668 0 0 0
44 1 21.556261118658007 5.100942213839909 4.862311094257956 -1 0 0
40 1 1.4439843254785274 6.930774518551363 5.257282135750053 0 0 0
175 1 4.974187344921551 7.3409039583149065 4.2851727919840314 0 0 0
520 1 8.325325739540494 7.676945983206034 4.542621955114134 0 0 0
300 1 9.906304806575617 6.569546098233038 3.4563346761877454 0 0 0
291 1 15.024607238697932 6.681498241898072 3.9217436668738967 0 0 0
302 1 13.8247186827016 8.041092437098223 5.471413522265317 0 0 0
293 1 12.457944786662416 9.602080466424058 4.132276645974047 0 0 0
430 1 18.870325607483608 7.992356598359781 5.459276856102846 0 0 0
419 1 20.298304056381596 6.7424135658690005 3.9509616974475708 0 0 0
37 1 1.178744487618257 9.277498236497934 4.170762698009257 0 0 0
35 1 3.531614938778849 9.059157227244096 5.18997903982934 0 0 0
165 1 5.369533910623793 9.884233024522725 3.314755056864473 0 0 0
46 1 4.288419489655161 11.420152577574255 6.240400527529813 0 0 0
204 1 6.4908615330116515 11.917310646939592 4.200995226820115 0 0 0
200 1 8.136721179051 9.867495204194254 5.458261504059809 0 0 0
332 1 11.160792356409907 11.035283425080708 5.472147951066081 0 0 0
195 1 9.628764411270305 12.327678938934959 4.081719355648488 0 0 0
323 1 14.747749736501872 12.104890988368762 4.142091783334959 0 0 0
421 1 17.52850469895831 9.389051147392053 4.128950939254865 0 0 0
460 1 16.07487818820233 10.777759419161786 5.461601898669067 0 0 0
76 1 21.57315562942463 10.717510643455437 5.49745402278017 -1 0 0
451 1 20.192206707782336 12.191208866086102 4.326598237725565 0 0 0
522 1 1.3152165373661573 15.047222485218189 4.1017300064703255 0 0 0
69 1 2.612850714934584 13.577726924484468 5.614359401040816 0 0 0
67 1 3.7159917830469245 12.460321697336838 3.7094997896412796 0 0 0
197 1 6.96682703812395 15.156835124530673 3.98032834057526 0 0 0
206 1 8.512792056773714 13.913291741572449 5.429470656212247 0 0 0
325 1 12.288540235756388 15.148481943059915 4.1378978105589965 0 0 0
334 1 13.56946258795494 13.84909534448027 5.446071642384334 0 0 0
453 1 17.672507079425152 15.044682084219124 4.193600715839004 0 0 0
462 1 18.81759188540268 13.596340354834037 5.656484045658188 0 0 0
108 1 0.10938877767358335 16.43026368274285 5.3948109382801634 0 0 0
99 1 3.862220896132964 17.643471845761642 3.982171582153445 0 0 0
236 1 5.458577779210507 16.33559425775502 5.303476192603215 0 0 0
227 1 9.585719887941226 17.657024253072393 4.113456941552877 0 0 0
364 1 11.001966303857293 16.486339748694768 5.464650416167809 0 0 0
355 1 15.122294578283842 17.786885920649787 4.2327517722170125 0 0 0
492 1 16.30160102990551 16.32159975174933 5.49919726455217 0 0 0
483 1 20.435913162536277 17.72792758111395 4.066979615764377 0 0 0
12 1 0.059842329451203775 0.12579122611662186 5.252046329397152 0 0 0
110 1 2.7029833543175874 19.050099243134085 5.5156031577601 0 0 0
101 1 1.353262037547618 20.287703537460587 3.9450753224667516 0 0 0
238 1 8.031341195979227 18.964118252479555 5.359632824272773 0 0 0
229 1 6.871294459029816 20.493584531947626 3.8850183124148447 0 0 0
357 1 12.270051539363136 20.512136553679213 4.265351458515872 0 0 0
366 1 13.791854428264987 19.216567070040295 5.443796731259898 0 0 0
396 1 16.277185959198782 0.11584641811104746 5.5100684143536895 0 0 0
485 1 17.39026280282305 20.402038912294476 3.9977812348740698 0 0 0
494 1 18.949618880511956 18.98620398876348 5.4983465864018495 0 0 0
15 1 1.0229989128253179 0.8330552229567197 7.260427819180867 0 0 0
10 1 21.729334047317252 2.8774145179461987 7.9714327174577075 -1 0 0
130 1 3.561538919462403 1.8596504283416615 6.713601599801375 0 0 0
138 1 5.754952677792043 2.69036618444524 8.377825967191631 0 0 0
143 1 6.882986356753323 1.4159172171590808 6.985350409577528 0 0 0
266 1 11.079765908677984 2.65129477131403 8.36237824966729 0 0 0
271 1 12.161345132997656 1.1610332172243791 7.04731876970052 0 0 0
394 1 16.31996315414456 2.6390485587874055 8.472477162695194 0 0 0
399 1 17.738937516170335 1.5144425949080684 6.88701728983746 0 0 0
516 1 1.6729313028864323 3.7771192837807783 6.29448108592139 0 0 0
48 1 2.5521690774309125 5.194633345537251 8.131390486720319 0 0 0
9 1 4.7501668861696515 4.633822066411466 7.416412647092985 0 0 0
176 1 8.388539836099682 5.375980337497811 8.453883232355226 0 0 0
519 1 9.796740056514555 4.103140358638348 7.009070536455391 0 0 0
265 1 14.99415406284673 3.8259531076973152 6.8021950252858 0 0 0
304 1 13.685687499574192 5.171788074580911 8.160554436023416 0 0 0
432 1 19.077281990121282 5.533577801475541 8.08616671817109 0 0 0
393 1 20.208431626015248 4.060346759795202 6.468084327755079 0 0 0
47 1 1.6132110878311665 7.160115215572245 7.519382600768795 0 0 0
41 1 3.2764728355854906 8.787409927263766 7.69824275972354 0 0 0
170 1 5.436206718408604 7.918842874806335 8.593868127018393 0 0 0
137 1 9.438928168023788 7.154299905143444 6.709739210520543 0 0 0
43 1 6.511258082752577 6.2910198998849625 7.488100775827264 0 0 0
298 1 11.326655038892213 8.17895784110994 8.405880355240043 0 0 0
303 1 12.523202799373383 6.7029249582369745 6.804396087752475 0 0 0
426 1 16.355230266165346 8.148855690267808 8.155751018879997 0 0 0
431 1 17.53376316068126 6.5629394040790725 6.868406556028239 0 0 0
42 1 21.573254442988276 8.245726194842492 8.435457996404319 -1 0 0
80 1 2.5573704680630898 11.09914739892856 8.194490733064963 0 0 0
79 1 1.1109780444210327 12.212292959648929 6.918901232689771 0 0 0
78 1 6.180799645077422 9.631901037134664 6.755111227791702 0 0 0
208 1 8.231220856638517 11.120929229573436 8.349296862149899 0 0 0
207 1 6.935599030145413 12.48708712696496 6.806610267878403 0 0 0
169 1 10.000986150559203 9.813421991673343 7.272167323472685 0 0 0
335 1 12.36930855396247 12.496439067561248 6.808324342918133 0 0 0
297 1 14.986602377441224 9.441221144514833 6.90178364061071 0 0 0
336 1 13.777638885727423 11.033877537393572 7.996363643480956 0 0 0
463 1 17.459735143793033 12.169851871920201 7.018133733307077 0 0 0
425 1 20.15963566944755 9.356338036735698 6.92644907124634 0 0 0
464 1 18.943614376013933 10.830126220115872 8.28037794809465 0 0 0
73 1 4.108548437829259 15.101754065401247 6.700079401146741 0 0 0
202 1 5.33518585013308 13.628650052125904 8.014561024467024 0 0 0
201 1 9.762632357159182 15.033133145994586 6.950440154464885 0 0 0
330 1 11.013381941468554 13.561928957051485 8.221117245612314 0 0 0
329 1 14.923292675784895 15.128661936716517 6.8834137786378955 0 0 0
458 1 16.324847551370894 13.829286601169597 8.297164105594419 0 0 0
74 1 21.492080459594845 13.62221398879296 8.137170656562526 -1 0 0
457 1 20.46304347238224 14.896585269142511 6.7188190133868035 0 0 0
111 1 1.2761737567826794 17.856748793017864 6.890903322329606 0 0 0
112 1 2.673841368681861 16.38471570454326 8.254468714252335 0 0 0
239 1 6.822884484136557 17.62674042549837 6.834661856805921 0 0 0
240 1 8.17983452194016 16.231303627833064 8.026043286743862 0 0 0
367 1 12.336658391388482 17.83338933868288 6.777417596723762 0 0 0
368 1 13.589228138058681 16.545981059318475 8.243586071604618 0 0 0
495 1 17.822688378085292 17.518850233099496 6.896274312432286 0 0 0
496 1 19.36510741118765 16.246641369311234 8.264794040043626 0 0 0
16 1 3.2977338805782574 21.594139303737453 8.353686737620368 0 -1 0
234 1 5.163912655568667 18.80986726594604 8.105638661254858 0 0 0
105 1 4.241359374293919 20.359411894802104 6.586326073323298 0 0 0
144 1 8.142138773622449 21.617845499769377 8.116570934898466 0 -1 0
233 1 9.47820044175658 20.279939803034342 6.813491699080211 0 0 0
362 1 10.85799704218243 18.82508622262527 8.261774899018762 0 0 0
272 1 13.55839099204871 21.50701915120989 8.327132183171248 0 -1 0
361 1 15.141323027132719 20.3960931578765 7.021224764945841 0 0 0
490 1 16.584974447730723 18.87673620568575 8.232706306451934 0 0 0
400 1 19.029927112067778 0.2191433424814287 8.219330909007232 0 0 0
106 1 0.015379740762103467 19.458634848793327 8.057485360871137 0 0 0
489 1 20.236456933302193 20.725745535872544 6.833410696279983 0 0 0
22 1 2.594042185313651 2.6143645109090303 10.943869220957202 0 0 0
23 1 1.137526291573488 1.4669214180721506 12.393396539767975 0 0 0
20 1 21.69486345303132 21.707504770900094 10.920356649087067 -1 -1 0
11 1 4.278821496603637 1.4644538935376987 9.72131539745871 0 0 0
150 1 8.24682690464855 2.572719257591981 11.055204036832222 0 0 0
151 1 6.942498259919537 1.254572642491248 12.29240639540118 0 0 0
139 1 9.57109753573619 1.3594243180936183 9.540649048917528 0 0 0
279 1 12.279597188592712 1.0995904608128078 12.407112284820911 0 0 0
267 1 14.931452880982093 1.2197445190384606 9.634618034763305 0 0 0
278 1 13.639855095172374 2.558325181000583 11.12238742721065 0 0 0
407 1 17.766189761773642 1.1121428904395834 12.147404657639479 0 0 0
404 1 16.500643301629758 21.514575451576512 10.850691785911042 0 -1 0
395 1 20.463214046604563 1.36716979173175 9.536397707379276 0 0 0
406 1 19.17187292881243 2.7178304937220417 10.851489853810273 0 0 0
13 1 1.2267731742211379 4.06964856540297 9.633681857181848 0 0 0
180 1 5.512930473953719 5.076026354397412 11.111633862186887 0 0 0
17 1 4.043459931201013 3.818684414011865 12.304147044271065 0 0 0
141 1 6.945867657627165 4.041743853049606 9.776456396986541 0 0 0
308 1 10.77168365019868 5.200777790735619 10.949392700358187 0 0 0
269 1 12.25397667708337 4.008052856609746 9.717233270448911 0 0 0
145 1 9.505831804351855 3.926912181697786 12.438199754897616 0 0 0
273 1 15.145410331063127 3.9677484095361466 12.381592504193831 0 0 0
397 1 17.776607814941265 4.21612301109381 9.614489252385422 0 0 0
436 1 16.311331340339066 5.550371559726953 11.10143918789174 0 0 0
52 1 21.658616938597014 5.384099331229766 11.19776797576191 -1 0 0
401 1 20.10182539727554 4.042162036489874 12.343269356011557 0 0 0
54 1 2.7330172830469537 8.069976160193843 11.00167484859906 0 0 0
55 1 1.2894617706583302 6.647903321993504 12.334660737660618 0 0 0
518 1 3.964751626740268 6.356581263347756 9.896839286493115 0 0 0
182 1 8.100406793180358 7.9437159962047685 11.08280975729025 0 0 0
183 1 6.755321461299897 6.680522696203591 12.311130039751621 0 0 0
171 1 9.664415550311466 6.939078323272556 9.814577332720722 0 0 0
311 1 12.149934177397991 6.703428140286192 12.126992112226464 0 0 0
299 1 14.976767763144759 6.738445995768115 9.537529895573053 0 0 0
310 1 13.672310686557328 8.051437558959345 10.972399152951681 0 0 0
439 1 17.734911031541316 6.7022969884970465 12.292818642579778 0 0 0
427 1 20.323936387547157 6.674456959446507 9.649246418958635 0 0 0
438 1 19.05170004273388 8.123120555021465 10.923489044532595 0 0 0
45 1 1.2214243565461649 9.54050495327618 9.68467667717079 0 0 0
87 1 1.3777106694964523 12.261602758938917 12.414911027548792 0 0 0
212 1 5.498703129613518 10.985681732825432 10.729784859940766 0 0 0
49 1 4.272140409203279 9.513016843176949 12.258657395843766 0 0 0
75 1 3.984409756457006 12.273265868641994 9.48159279608881 0 0 0
173 1 6.949960456033101 9.473129365748383 9.573370360616918 0 0 0
215 1 6.756364952195986 12.357751860978954 12.14579965534288 0 0 0
340 1 11.057641726968875 10.940550323576986 10.949615234848798 0 0 0
343 1 12.400091821416803 12.396748800028217 12.203657851764254 0 0 0
301 1 12.471300640514189 9.67166150805249 9.70240975311061 0 0 0
203 1 9.71183475768029 12.269701224766488 9.6579114602548 0 0 0
177 1 9.39228027819495 9.51983305528858 12.17542764074356 0 0 0
331 1 15.08275419797892 12.297883325972176 9.58647087379953 0 0 0
305 1 14.86885451616684 9.505379535355672 12.32807318526029 0 0 0
429 1 17.697280648653464 9.556955522389277 9.61377390472742 0 0 0
468 1 16.40775911682994 10.81603782563261 11.006096452156553 0 0 0
471 1 17.933812139735423 12.216919064134801 12.222284574861051 0 0 0
84 1 21.73415390149479 11.017245329565856 11.095377155147657 -1 0 0
459 1 20.28267515850068 12.162722163623469 9.661671788575813 0 0 0
77 1 1.2619173109568407 14.905493222951666 9.53935935467992 0 0 0
86 1 2.586438919416919 13.354658073551674 10.90986857172771 0 0 0
81 1 4.037936613384091 14.883728428793338 12.190288573867656 0 0 0
205 1 6.752763359167132 14.851783209728879 9.299549926590032 0 0 0
214 1 8.11258574958084 13.563208214072473 10.677836670659664 0 0 0
209 1 9.397949498036967 14.81304526508328 12.183116833700781 0 0 0
333 1 12.270632998143801 15.112784941358626 9.581397383696526 0 0 0
342 1 13.759036331256763 13.687117481730953 10.99320371061241 0 0 0
337 1 15.187789099042059 14.968279613268729 12.147660250622454 0 0 0
461 1 17.918178489285435 15.069518113682902 9.705262826686836 0 0 0
470 1 19.241726536336365 13.865791190504204 11.176036623687667 0 0 0
465 1 20.57812559023062 15.197194010519112 12.460848167250616 0 0 0
119 1 1.612208272372063 17.76865908036472 12.350092071602967 0 0 0
107 1 4.030846283577242 17.714498767249417 9.66901635233467 0 0 0
244 1 5.400577209930611 16.235083789349048 10.734177253495274 0 0 0
247 1 6.864214641816246 17.57992861590853 12.220753088449754 0 0 0
235 1 9.524834308745373 17.56545046170252 9.463377270811485 0 0 0
372 1 10.935721355212044 16.257804901664905 10.963111644335626 0 0 0
375 1 12.327143029602073 17.502573427244442 12.36727143935946 0 0 0
363 1 15.040283025485044 17.69713331235993 9.565036970284767 0 0 0
500 1 16.423663627579703 16.496488650114024 10.864332567502807 0 0 0
503 1 17.83672792200723 17.59033234275645 12.316931693854842 0 0 0
116 1 0.21754647448629427 16.422544625950675 11.015009364545627 0 0 0
491 1 20.71505182939618 17.868111790199013 9.372912507146612 0 0 0
109 1 1.5089816204298347 20.4684935971008 9.545979143910708 0 0 0
118 1 2.8113025470588457 19.150069481904655 11.001265133055943 0 0 0
148 1 5.6119979949234535 21.70779949748274 10.843306264903081 0 -1 0
113 1 4.2571779226212305 20.410911784541167 12.172821430093856 0 0 0
237 1 6.7145012778020865 20.229305793532586 9.521961683171433 0 0 0
246 1 8.188133474741589 18.881185560783717 10.91335120980413 0 0 0
276 1 10.878193577496264 0.06112712507144735 10.745544011245826 0 0 0
365 1 12.17947340023286 20.293909532597937 9.753612401009118 0 0 0
241 1 9.575796101789278 20.282506189319378 12.294419271183353 0 0 0
374 1 13.614836927543184 18.896066035041883 11.077032611282181 0 0 0
369 1 15.081147591551007 20.402590447216554 12.304629267330412 0 0 0
493 1 17.855030620966538 20.223509306711996 9.637610255924677 0 0 0
502 1 19.260788706752535 18.86972956216522 10.894348698729265 0 0 0
497 1 20.556635439234583 20.3758299070392 12.325870065732685 0 0 0
24 1 2.7154824226219567 21.723508152886705 13.633938486216511 0 -1 0
19 1 4.14751880845798 1.2300324094354762 15.079971191559071 0 0 0
146 1 5.487690227132101 2.5970159199978458 13.631007225699477 0 0 0
147 1 9.563789524082335 1.286886412369578 14.955498543266526 0 0 0
274 1 10.980327553796513 2.577150887519417 13.649002936685372 0 0 0
275 1 15.064407136326759 1.2953457807865245 14.865584219967424 0 0 0
402 1 16.57661511570215 2.611866226112219 13.588982189742904 0 0 0
18 1 21.577577232976243 2.849979573340022 13.572509650279079 -1 0 0
403 1 20.50709815417408 1.2555350811983679 14.94308954648106 0 0 0
21 1 1.1845806226587978 4.072370261873278 15.010922400903247 0 0 0
56 1 2.6970905085423467 5.222195810377765 13.671049206592752 0 0 0
149 1 6.938207611413188 3.9805751095859043 14.997771944304276 0 0 0
184 1 8.186350723959833 5.370957869520955 13.588993275564807 0 0 0
277 1 12.402881494004932 4.129887214318182 14.933248298652652 0 0 0
312 1 13.639597680443025 5.38210866714478 13.45750946718332 0 0 0
405 1 17.830619663924306 3.944301777926904 14.954814479933555 0 0 0
440 1 19.073333987979208 5.491373494055764 13.583379299349659 0 0 0
50 1 0.10422024908276056 8.161071166469533 13.660672755413657 0 0 0
51 1 4.058725234978262 6.748233192393335 14.953391168324764 0 0 0
178 1 5.5070786050331835 8.01662265939292 13.664989064744741 0 0 0
179 1 9.625376187128595 6.765431273550896 15.052040974675432 0 0 0
306 1 10.907961853955236 8.118327162863201 13.521202958204771 0 0 0
307 1 15.01007987974415 6.808355332827227 14.829028187655277 0 0 0
434 1 16.37659769493047 8.098321798374332 13.430850997039345 0 0 0
435 1 20.435007501822454 6.8075009537832205 15.009663049944704 0 0 0
53 1 1.2629482219694097 9.559301008079066 15.088291871361609 0 0 0
88 1 2.796677421035768 10.720824765178374 13.632157250334124 0 0 0
83 1 4.103063571488054 12.071706964862681 14.860441058818012 0 0 0
181 1 6.745470782113409 9.5648204497294 14.775834939365415 0 0 0
216 1 7.861318138415015 10.99645278752942 13.571118363920213 0 0 0
211 1 9.336698593033525 12.261768009597613 14.845119360847656 0 0 0
309 1 12.206537719432282 9.62814392808478 14.77934995947722 0 0 0
344 1 13.565960709730676 10.86092224278799 13.57301726922838 0 0 0
339 1 14.85780470472141 12.228272835159938 15.019748443107254 0 0 0
437 1 17.583173647380676 9.740143547461711 14.951210359723726 0 0 0
433 1 20.329543252921624 9.415855703464581 12.422564919440445 0 0 0
472 1 19.050133037616018 10.898813945770604 13.715423382241234 0 0 0
467 1 20.334660697365255 12.360851980433923 14.974455584968661 0 0 0
85 1 1.4914837839512929 14.938832181975894 15.083063790973322 0 0 0
82 1 21.710296529112608 13.682774955952459 13.748975629029378 -1 0 0
210 1 5.472026795016391 13.577370863754593 13.596368363286366 0 0 0
213 1 6.835782072854123 14.993280365592529 15.04239403262043 0 0 0
338 1 10.793862821293741 13.537536670172253 13.54961640948541 0 0 0
341 1 12.250986422070138 14.91423818293889 14.895814885314563 0 0 0
466 1 16.28023770641265 13.283380125432728 13.664338412371228 0 0 0
469 1 17.638527978221763 14.84034645909988 15.048956267877948 0 0 0
120 1 2.8669852550507606 16.223914378338456 13.712437427948204 0 0 0
115 1 4.00951222672263 17.536943174735466 15.104330590248516 0 0 0
248 1 8.155076883418895 16.257264766342903 13.620362916476921 0 0 0
243 1 9.544713163609732 17.620541695824667 14.906147039731362 0 0 0
371 1 15.026799873538685 17.647517742787567 14.904851822530544 0 0 0
376 1 13.82450247601792 16.249867902969306 13.57853522567318 0 0 0
504 1 19.107116703963822 16.29943042593688 13.718487107641732 0 0 0
499 1 20.440324954200232 17.630229540390545 15.045531521607957 0 0 0
117 1 1.6191345046724104 20.169848469510743 15.076845143865857 0 0 0
114 1 0.12689633908866038 18.986155962573577 13.595257048043043 0 0 0
242 1 5.4172558402881545 18.96754341778398 13.789558495167237 0 0 0
152 1 8.176667538510182 21.5941398422818 13.699523390203453 0 -1 0
245 1 6.884825312248866 20.326656366745425 15.111424713157662 0 0 0
370 1 10.863916503563875 18.942873292256916 13.562532760011948 0 0 0
373 1 12.279263118630086 20.26708805749429 14.930766050569323 0 0 0
280 1 13.683629427356443 21.610921574187262 13.711915030476842 0 -1 0
498 1 16.52094646741068 19.038182602983166 13.739983678841016 0 0 0
501 1 17.81139339944399 20.330347595465337 15.09458443768174 0 0 0
408 1 19.188470335299765 21.476045612589413 13.7490675033983 0 -1 0
31 1 1.4014075832673822 1.3613764624882305 17.56417147475767 0 0 0
30 1 2.5707981859011024 2.7473185492084884 16.21367522291089 0 0 0
158 1 8.108919481664795 2.636269288104604 16.286293326512062 0 0 0
159 1 6.789987644559468 1.4102594336945513 17.698246982326072 0 0 0
287 1 12.294472174144857 1.3503988232934359 17.49522693973536 0 0 0
286 1 13.722221440838988 2.7554833447651284 16.25423183371598 0 0 0
415 1 17.71210316113278 1.261169072412192 17.76596432060378 0 0 0
414 1 19.09910214134529 2.54349267966712 16.361766510519157 0 0 0
60 1 0.02387445975820689 5.696035354302559 16.367183236725634 0 0 0
25 1 4.065544753144436 4.107108682862501 17.56006741023657 0 0 0
188 1 5.572536602709175 5.285241632532334 16.13242576002842 0 0 0
153 1 9.567976406165432 3.976885825008681 17.524372206058406 0 0 0
316 1 11.082060278536797 5.322825739449061 16.261749802760175 0 0 0
281 1 15.022705392248087 3.9411211930321732 17.698430451266393 0 0 0
444 1 16.377053392846335 5.282190349095994 16.26898668669427 0 0 0
409 1 20.421718563759217 4.198947600863506 17.689872050954094 0 0 0
63 1 1.3387608038874912 6.941103620238915 17.84398416755085 0 0 0
62 1 2.6562496643754536 8.253959038816713 16.47734934408292 0 0 0
190 1 8.124194051408525 8.229624256298282 16.168472542555637 0 0 0
191 1 6.828221819377016 6.876788643135312 17.482673405851173 0 0 0
319 1 12.241992008887008 6.996837502465571 17.50867211632294 0 0 0
318 1 13.602429688840488 8.170795112526907 16.147220499321953 0 0 0
447 1 17.752347160679278 6.806124483150835 17.469782690603907 0 0 0
446 1 19.088640158534954 8.206036781854891 16.17332466142951 0 0 0
95 1 1.2218496318489105 12.174645720950327 17.83568462230638 0 0 0
57 1 4.13261028970091 9.6267929033803 17.809497120716216 0 0 0
220 1 5.426349710063038 10.922841469212253 16.23822347444952 0 0 0
223 1 6.943068687073603 12.275456493696431 17.730885192623298 0 0 0
185 1 9.53155333086059 9.604225807254819 17.600436964518135 0 0 0
348 1 10.881073576075972 10.85976678693217 16.194503854219 0 0 0
351 1 12.252672671678242 12.312970624718579 17.541253259001365 0 0 0
313 1 14.979489521796769 9.764899341747038 17.613830000148518 0 0 0
476 1 16.381160574892295 11.032794076917714 16.31671213059459 0 0 0
479 1 17.700241853821037 12.250552617841382 17.724444095386133 0 0 0
92 1 21.644519731266477 10.990461125114953 16.322845663163946 -1 0 0
441 1 20.361512330510045 9.46752461324964 17.54685045451266 0 0 0
94 1 2.6730218329984146 13.329994145707136 16.35007242059304 0 0 0
89 1 3.895662120795059 14.731572848635416 17.88489047429328 0 0 0
222 1 8.265544869744508 13.671940643146517 16.219416311205553 0 0 0
217 1 9.69589478825176 14.982031188381557 17.647048627726182 0 0 0
345 1 15.040131345122871 14.956813545197845 17.67871196791167 0 0 0
350 1 13.688138949083479 13.608465730442687 16.374993558603727 0 0 0
478 1 19.108610092690398 13.671190388419562 16.402187852561546 0 0 0
473 1 20.387252033410636 14.93366946235186 17.844769070417286 0 0 0
127 1 1.3534527698169012 17.50526905392225 17.819765021783084 0 0 0
252 1 5.3711241866949075 16.238328785143086 16.590314147437418 0 0 0
255 1 6.902860835222388 17.72046586468471 17.731905017553434 0 0 0
380 1 11.018989549169115 16.42893953420607 16.24585777945045 0 0 0
383 1 12.302361410812665 17.7896663677909 17.655041714583454 0 0 0
508 1 16.38840814245309 16.390048919773605 16.331146445676463 0 0 0
511 1 17.519869492904615 17.698818715339016 17.71717007534754 0 0 0
124 1 0.010272177827434312 16.10152075611861 16.351514151030425 0 0 0
126 1 2.7415805661597217 18.800812349206783 16.449735312866988 0 0 0
156 1 5.394572295214607 21.62291595897837 16.502891922404544 0 -1 0
121 1 4.115511891015647 20.24926181539637 17.796359312915822 0 0 0
254 1 8.268258530344472 18.902732741446176 16.311344621521666 0 0 0
284 1 10.882131924586757 21.71638585373496 16.352033854571637 0 -1 0
249 1 9.453850453502113 20.282243561983687 17.8040274616988 0 0 0
382 1 13.618149878086758 19.065045253089018 16.329138448393444 0 0 0
377 1 14.945520405112289 20.52974462187565 17.553252282560507 0 0 0
412 1 16.505648492694267 0.068601358135096 16.355149247712063 0 0 0
28 1 0.012733566816867721 21.47310462613453 16.23151011114161 0 -1 0
510 1 19.038367974921165 18.928799559264768 16.396091398070148 0 0 0
505 1 20.491944750895573 20.22211607650062 17.563230281540065 0 0 0
6 1 2.649734701050969 2.7368131871805885 21.58194780862886 0 0 -1