LAMMPS (10 Sep 2025)
OMP_NUM_THREADS environment is not set. Defaulting to 1 thread.
  using 1 OpenMP thread(s) per MPI task
Loaded 1 plugins from C:\Users\lmike\AppData\Local\LAMMPS 64-bit 10Sep2025 with GUI\plugins
# LAMMPS input generated from LammpsInputFile with pymatgen v2025.10.7

# STYLES
units metal
atom_style atomic

# SET UP CALCULATION
read_data starting_config.dat
Reading data file ...
  orthogonal box = (0 0 0) to (21.763403 21.763403 21.763403)
  1 by 1 by 1 MPI processor grid
  reading atoms ...
  522 atoms
  read_data CPU = 0.003 seconds
pair_style sw
pair_coeff * * Si.sw Si
Reading sw potential file Si.sw with DATE: 2007-06-11
velocity all create 800 6767252

# CALCULATION PARAMETERS
fix f1 all nvt temp 800.0 800.0 $(100.0*dt)
fix f1 all nvt temp 800.0 800.0 0.10000000000000000555
thermo 100000
thermo_style custom step temp press spcpu cpuremain

# RUN CALC AND WRITE OUTPUTS
dump d1 all custom 100 state_dump id type x y z vx vy vz
run 10000000
Neighbor list info ...
  update: every = 1 steps, delay = 0 steps, check = yes
  max neighbors/atom: 2000, page size: 100000
  master list distance cutoff = 5.77118
  ghost atom cutoff = 5.77118
  binsize = 2.88559, bins = 8 8 8
  1 neighbor lists, perpetual/occasional/extra = 1 0 0
  (1) pair sw, perpetual
      attributes: full, newton on
      pair build: full/bin/atomonly
      stencil: full/bin/3d
      bin: standard
Per MPI rank memory allocation (min/avg/max) = 3.121 | 3.121 | 3.121 Mbytes
   Step          Temp          Press          S/CPU         CPULeft    
         0   800            86706.658      0              0            
    100000   799.75638      21517.529      456.52708      21685.461    
    200000   787.46047      21598.242      428.62         22165.245    
    300000   776.74568      20581.408      581.32727      20188.031    
    400000   756.68392      23173.514      455.16661      20257.725    
    500000   761.78275      24053.69       457.76774      20187.942    
    600000   798.89986      21387.439      464.53193      20018.768    
    700000   807.71763      22415.643      467.38101      19818.99     
    800000   847.69965      21975.954      460.13454      19654.416    
    900000   784.92583      21041.916      466.82295      19446.636    
   1000000   800.08778      22886.502      447.67087      19320.048    
   1100000   853.95466      23380.722      471.30147      19085.245    
   1200000   801.21826      23076.147      466.05992      18871.711    
   1300000   735.97906      21475.807      460.57044      18675.133    
   1400000   839.61076      23645.126      461.73146      18472.267    
   1500000   770.96584      22146.828      448.90931      18302.627    
   1600000   781.36023      21526.752      457.05547      18105.503    
   1700000   791.41127      24159.269      463.69227      17890.54     
   1800000   744.95197      22717.024      470.95468      17660.35     
   1900000   786.04851      22361.828      463.49015      17446.618    
   2000000   767.43456      22048.4        463.42086      17232.812    
   2100000   793.22029      22561.605      448.64476      17045.554    
   2200000   786.76642      21044.701      460.56233      16834.607    
   2300000   885.22129      23486.593      475.14875      16600.808    
   2400000   806.08656      24491.497      450.24586      16405.815    
   2500000   779.12568      23414.145      456.86645      16198.998    
   2600000   826.32556      22215.535      455.27409      15993.432    
   2700000   823.66027      20534.808      452.78336      15790.09     
   2800000   808.35626      22866.98       463.45384      15572.421    
   2900000   798.8569       21013.966      476.68038      15340.225    
   3000000   804.62183      22517.763      460.0719       15127.193    
   3100000   830.12007      21468.695      465.03118      14908.724    
   3200000   838.15804      21472.369      451.77987      14703.872    
   3300000   781.36553      22055.786      457.01557      14492.871    
   3400000   835.60834      20815.315      454.0016       14284.231    
   3500000   864.26298      23077.53       467.47645      14063.136    
   3600000   790.71834      22776.671      456.72923      13851.389    
   3700000   849.91759      21205.104      462.44781      13634.642    
   3800000   774.88153      22037.18       453.52262      13424.865    
   3900000   815.33557      22641.825      468.33823      13203.628    
   4000000   830.96276      23515.571      458.14693      12989.901    
   4100000   819.44116      22787.159      468.42971      12769.058    
   4200000   801.84504      22571.639      458.08134      12555.226    
   4300000   774.73958      20079.339      464.33997      12337.285    
   4400000   822.65706      21901.926      448.18706      12129.34     
   4500000   823.24444      21241.456      470.12308      11907.996    
   4600000   775.9096       21353.791      467.35513      11688.507    
   4700000   798.47194      23139.097      450.75304      11478.139    
   4800000   813.0853       23401.288      448.2925       11268.612    
   4900000   792.73548      20991.088      450.19687      11057.55     
   5000000   770.70248      21142.999      470.66844      10836.385    
   5100000   811.07329      22173.633      448.24687      10625.771    
   5200000   813.082        23955.006      458.41258      10410.111    
   5300000   829.10036      21371.322      459.55668      10193.875    
   5400000   800.0974       21393.873      464.36945      9975.6681    
   5500000   796.16056      21844.216      467.66291      9756.3241    
   5600000   799.4516       22269.114      461.6614       9539.3612    
   5700000   804.14125      21443.561      451.66286      9326.028     
   5800000   841.4592       23917.053      466.21121      9107.4134    
   5900000   794.44568      21808.738      471.03347      8887.4125    
   6000000   759.25094      22867.598      466.2779       8669.1118    
   6100000   807.92566      23713.791      465.32634      8451.2173    
   6200000   818.9691       24252.526      448.81654      8238.2645    
   6300000   819.44306      25639.697      449.67412      8024.7492    
   6400000   842.17957      22427.866      477.0621       7803.7754    
   6500000   790.45589      21778.053      453.99646      7588.8855    
   6600000   834.23782      23358.891      463.79966      7371.4343    
   6700000   810.03597      23260.987      458.80443      7155.1943    
   6800000   789.32234      22951.203      449.78525      6940.9605    
   6900000   805.91407      23193.769      476.03108      6720.9848    
   7000000   807.17591      22924.761      462.62622      6503.9008    
   7100000   805.23051      23566.713      460.51659      6287.2474    
   7200000   849.7246       21007.994      459.58206      6070.7519    
   7300000   821.39397      23110.15       441.54647      5857.5138    
   7400000   829.36418      21621.017      459.52439      5640.8047    
   7500000   804.24099      24882.495      453.013        5425.1141    
   7600000   804.21752      22663.234      454.04387      5209.1322    
   7700000   792.46358      22200.498      457.0276       4992.6101    
   7800000   758.75612      23129.385      449.57637      4777.0524    
   7900000   828.82127      23299.611      471.6117       4558.558     
   8000000   795.20568      22080.14       478.23802      4339.4904    
   8100000   776.0877       21081.905      468.51374      4121.687     
   8200000   800.746        23051.891      478.46271      3903.0158    
   8300000   868.59675      23973.864      481.45069      3684.3119    
   8400000   767.43386      20405.831      477.8903       3466.1646    
   8500000   793.05778      20087.785      491.39917      3247.2114    
   8600000   829.98745      22869.519      500.21774      3028.0335    
   8700000   789.04116      21491.607      496.67246      2809.5118    
   8800000   778.7397       20919.454      530.46669      2589.6315    
   8900000   798.47083      22476.143      518.16582      2371.0091    
   9000000   828.61215      20476.042      561.46416      2151.3028    
   9100000   785.40641      23244.141      556.85342      1932.6566    
   9200000   775.13763      20141.529      624.98681      1713.1573    
   9300000   784.50323      21458.191      653.46644      1494.4126    
   9400000   776.27439      21457.4        694.92275      1276.4834    
   9500000   790.16335      23259.042      718.8289       1059.8608    
   9600000   785.33118      21368.346      725.16709      844.80225    
   9700000   779.99982      21531.823      721.16554      631.3583     
   9800000   777.28166      21854.473      713.43672      419.47112    
   9900000   809.35537      22325.359      721.82062      209.0164     
  10000000   768.69252      21430.252      737.52818      0            
Loop time of 20828.2 on 1 procs for 10000000 steps with 522 atoms

Performance: 41.482 ns/day, 0.579 hours/ns, 480.118 timesteps/s, 250.622 katom-step/s
99.6% CPU use with 1 MPI tasks x 1 OpenMP threads

MPI task timing breakdown:
Section |  min time  |  avg time  |  max time  |%varavg| %total
---------------------------------------------------------------
Pair    | 20546      | 20546      | 20546      |   0.0 | 98.64
Neigh   | 11.826     | 11.826     | 11.826     |   0.0 |  0.06
Comm    | 43.053     | 43.053     | 43.053     |   0.0 |  0.21
Output  | 146.1      | 146.1      | 146.1      |   0.0 |  0.70
Modify  | 64.787     | 64.787     | 64.787     |   0.0 |  0.31
Other   |            | 16.52      |            |       |  0.08

Nlocal:            522 ave         522 max         522 min
Histogram: 1 0 0 0 0 0 0 0 0 0
Nghost:           1465 ave        1465 max        1465 min
Histogram: 1 0 0 0 0 0 0 0 0 0
Neighs:              0 ave           0 max           0 min
Histogram: 1 0 0 0 0 0 0 0 0 0
FullNghs:        19044 ave       19044 max       19044 min
Histogram: 1 0 0 0 0 0 0 0 0 0

Total # of neighbors = 19044
Ave neighs/atom = 36.482759
Neighbor list builds = 15690
Dangerous builds = 0
write_data FINAL_STRUCTURE
System init for write_data ...
Total wall time: 5:47:08
