Generated by pymatgen.io.lammps.data.LammpsData

522  atoms

  1  atom types

0.000000 21.763403  xlo xhi
0.000000 21.763403  ylo yhi
0.000000 21.763403  zlo zhi

Masses

1  28.085

Atoms

1    1   4.080638   4.080638   1.360213
2    1   0.000000   2.720425   2.720425
3    1   4.080638   1.360213   4.080638
4    1   0.000000   0.000000   0.000000
5    1   1.360213   4.080638   4.080638
6    1   2.720425   2.720425   0.000000
7    1   1.360213   1.360213   1.360213
8    1   2.720425   0.000000   2.720425
9    1   4.080638   4.080638   6.801063
10   1   0.000000   2.720425   8.161276
11   1   4.080638   1.360213   9.521489
12   1   0.000000   0.000000   5.440851
13   1   1.360213   4.080638   9.521489
14   1   2.720425   2.720425   5.440851
15   1   1.360213   1.360213   6.801063
16   1   2.720425   0.000000   8.161276
17   1   4.080638   4.080638  12.241914
18   1   0.000000   2.720425  13.602127
19   1   4.080638   1.360213  14.962340
20   1   0.000000   0.000000  10.881701
21   1   1.360213   4.080638  14.962340
22   1   2.720425   2.720425  10.881701
23   1   1.360213   1.360213  12.241914
24   1   2.720425   0.000000  13.602127
25   1   4.080638   4.080638  17.682765
26   1   0.000000   2.720425  19.042978
27   1   4.080638   1.360213  20.403190
28   1   0.000000   0.000000  16.322552
29   1   1.360213   4.080638  20.403190
30   1   2.720425   2.720425  16.322552
31   1   1.360213   1.360213  17.682765
32   1   2.720425   0.000000  19.042978
33   1   4.080638   9.521489   1.360213
34   1   0.000000   8.161276   2.720425
35   1   4.080638   6.801063   4.080638
36   1   0.000000   5.440851   0.000000
37   1   1.360213   9.521489   4.080638
38   1   2.720425   8.161276   0.000000
39   1   1.360213   6.801063   1.360213
40   1   2.720425   5.440851   2.720425
41   1   4.080638   9.521489   6.801063
42   1   0.000000   8.161276   8.161276
43   1   4.080638   6.801063   9.521489
44   1   0.000000   5.440851   5.440851
45   1   1.360213   9.521489   9.521489
46   1   2.720425   8.161276   5.440851
47   1   1.360213   6.801063   6.801063
48   1   2.720425   5.440851   8.161276
49   1   4.080638   9.521489  12.241914
50   1   0.000000   8.161276  13.602127
51   1   4.080638   6.801063  14.962340
52   1   0.000000   5.440851  10.881701
53   1   1.360213   9.521489  14.962340
54   1   2.720425   8.161276  10.881701
55   1   1.360213   6.801063  12.241914
56   1   2.720425   5.440851  13.602127
57   1   4.080638   9.521489  17.682765
58   1   0.000000   8.161276  19.042978
59   1   4.080638   6.801063  20.403190
60   1   0.000000   5.440851  16.322552
61   1   1.360213   9.521489  20.403190
62   1   2.720425   8.161276  16.322552
63   1   1.360213   6.801063  17.682765
64   1   2.720425   5.440851  19.042978
65   1   4.080638  14.962340   1.360213
66   1   0.000000  13.602127   2.720425
67   1   4.080638  12.241914   4.080638
68   1   0.000000  10.881701   0.000000
69   1   1.360213  14.962340   4.080638
70   1   2.720425  13.602127   0.000000
71   1   1.360213  12.241914   1.360213
72   1   2.720425  10.881701   2.720425
73   1   4.080638  14.962340   6.801063
74   1   0.000000  13.602127   8.161276
75   1   4.080638  12.241914   9.521489
76   1   0.000000  10.881701   5.440851
77   1   1.360213  14.962340   9.521489
78   1   2.720425  13.602127   5.440851
79   1   1.360213  12.241914   6.801063
80   1   2.720425  10.881701   8.161276
81   1   4.080638  14.962340  12.241914
82   1   0.000000  13.602127  13.602127
83   1   4.080638  12.241914  14.962340
84   1   0.000000  10.881701  10.881701
85   1   1.360213  14.962340  14.962340
86   1   2.720425  13.602127  10.881701
87   1   1.360213  12.241914  12.241914
88   1   2.720425  10.881701  13.602127
89   1   4.080638  14.962340  17.682765
90   1   0.000000  13.602127  19.042978
91   1   4.080638  12.241914  20.403190
92   1   0.000000  10.881701  16.322552
93   1   1.360213  14.962340  20.403190
94   1   2.720425  13.602127  16.322552
95   1   1.360213  12.241914  17.682765
96   1   2.720425  10.881701  19.042978
97   1   4.080638  20.403190   1.360213
98   1   0.000000  19.042978   2.720425
99   1   4.080638  17.682765   4.080638
100  1   0.000000  16.322552   0.000000
101  1   1.360213  20.403190   4.080638
102  1   2.720425  19.042978   0.000000
103  1   1.360213  17.682765   1.360213
104  1   2.720425  16.322552   2.720425
105  1   4.080638  20.403190   6.801063
106  1   0.000000  19.042978   8.161276
107  1   4.080638  17.682765   9.521489
108  1   0.000000  16.322552   5.440851
109  1   1.360213  20.403190   9.521489
110  1   2.720425  19.042978   5.440851
111  1   1.360213  17.682765   6.801063
112  1   2.720425  16.322552   8.161276
113  1   4.080638  20.403190  12.241914
114  1   0.000000  19.042978  13.602127
115  1   4.080638  17.682765  14.962340
116  1   0.000000  16.322552  10.881701
117  1   1.360213  20.403190  14.962340
118  1   2.720425  19.042978  10.881701
119  1   1.360213  17.682765  12.241914
120  1   2.720425  16.322552  13.602127
121  1   4.080638  20.403190  17.682765
122  1   0.000000  19.042978  19.042978
123  1   4.080638  17.682765  20.403190
124  1   0.000000  16.322552  16.322552
125  1   1.360213  20.403190  20.403190
126  1   2.720425  19.042978  16.322552
127  1   1.360213  17.682765  17.682765
128  1   2.720425  16.322552  19.042978
129  1   9.521489   4.080638   1.360213
130  1   5.440851   2.720425   2.720425
131  1   9.521489   1.360213   4.080638
132  1   5.440851   0.000000   0.000000
133  1   6.801063   4.080638   4.080638
134  1   8.161276   2.720425   0.000000
135  1   6.801063   1.360213   1.360213
136  1   8.161276   0.000000   2.720425
137  1   9.521489   4.080638   6.801063
138  1   5.440851   2.720425   8.161276
139  1   9.521489   1.360213   9.521489
140  1   5.440851   0.000000   5.440851
141  1   6.801063   4.080638   9.521489
142  1   8.161276   2.720425   5.440851
143  1   6.801063   1.360213   6.801063
144  1   8.161276   0.000000   8.161276
145  1   9.521489   4.080638  12.241914
146  1   5.440851   2.720425  13.602127
147  1   9.521489   1.360213  14.962340
148  1   5.440851   0.000000  10.881701
149  1   6.801063   4.080638  14.962340
150  1   8.161276   2.720425  10.881701
151  1   6.801063   1.360213  12.241914
152  1   8.161276   0.000000  13.602127
153  1   9.521489   4.080638  17.682765
154  1   5.440851   2.720425  19.042978
155  1   9.521489   1.360213  20.403190
156  1   5.440851   0.000000  16.322552
157  1   6.801063   4.080638  20.403190
158  1   8.161276   2.720425  16.322552
159  1   6.801063   1.360213  17.682765
160  1   8.161276   0.000000  19.042978
161  1   9.521489   9.521489   1.360213
162  1   5.440851   8.161276   2.720425
163  1   9.521489   6.801063   4.080638
164  1   5.440851   5.440851   0.000000
165  1   6.801063   9.521489   4.080638
166  1   8.161276   8.161276   0.000000
167  1   6.801063   6.801063   1.360213
168  1   8.161276   5.440851   2.720425
169  1   9.521489   9.521489   6.801063
170  1   5.440851   8.161276   8.161276
171  1   9.521489   6.801063   9.521489
172  1   5.440851   5.440851   5.440851
173  1   6.801063   9.521489   9.521489
174  1   8.161276   8.161276   5.440851
175  1   6.801063   6.801063   6.801063
176  1   8.161276   5.440851   8.161276
177  1   9.521489   9.521489  12.241914
178  1   5.440851   8.161276  13.602127
179  1   9.521489   6.801063  14.962340
180  1   5.440851   5.440851  10.881701
181  1   6.801063   9.521489  14.962340
182  1   8.161276   8.161276  10.881701
183  1   6.801063   6.801063  12.241914
184  1   8.161276   5.440851  13.602127
185  1   9.521489   9.521489  17.682765
186  1   5.440851   8.161276  19.042978
187  1   9.521489   6.801063  20.403190
188  1   5.440851   5.440851  16.322552
189  1   6.801063   9.521489  20.403190
190  1   8.161276   8.161276  16.322552
191  1   6.801063   6.801063  17.682765
192  1   8.161276   5.440851  19.042978
193  1   9.521489  14.962340   1.360213
194  1   5.440851  13.602127   2.720425
195  1   9.521489  12.241914   4.080638
196  1   5.440851  10.881701   0.000000
197  1   6.801063  14.962340   4.080638
198  1   8.161276  13.602127   0.000000
199  1   6.801063  12.241914   1.360213
200  1   8.161276  10.881701   2.720425
201  1   9.521489  14.962340   6.801063
202  1   5.440851  13.602127   8.161276
203  1   9.521489  12.241914   9.521489
204  1   5.440851  10.881701   5.440851
205  1   6.801063  14.962340   9.521489
206  1   8.161276  13.602127   5.440851
207  1   6.801063  12.241914   6.801063
208  1   8.161276  10.881701   8.161276
209  1   9.521489  14.962340  12.241914
210  1   5.440851  13.602127  13.602127
211  1   9.521489  12.241914  14.962340
212  1   5.440851  10.881701  10.881701
213  1   6.801063  14.962340  14.962340
214  1   8.161276  13.602127  10.881701
215  1   6.801063  12.241914  12.241914
216  1   8.161276  10.881701  13.602127
217  1   9.521489  14.962340  17.682765
218  1   5.440851  13.602127  19.042978
219  1   9.521489  12.241914  20.403190
220  1   5.440851  10.881701  16.322552
221  1   6.801063  14.962340  20.403190
222  1   8.161276  13.602127  16.322552
223  1   6.801063  12.241914  17.682765
224  1   8.161276  10.881701  19.042978
225  1   9.521489  20.403190   1.360213
226  1   5.440851  19.042978   2.720425
227  1   9.521489  17.682765   4.080638
228  1   5.440851  16.322552   0.000000
229  1   6.801063  20.403190   4.080638
230  1   8.161276  19.042978   0.000000
231  1   6.801063  17.682765   1.360213
232  1   8.161276  16.322552   2.720425
233  1   9.521489  20.403190   6.801063
234  1   5.440851  19.042978   8.161276
235  1   9.521489  17.682765   9.521489
236  1   5.440851  16.322552   5.440851
237  1   6.801063  20.403190   9.521489
238  1   8.161276  19.042978   5.440851
239  1   6.801063  17.682765   6.801063
240  1   8.161276  16.322552   8.161276
241  1   9.521489  20.403190  12.241914
242  1   5.440851  19.042978  13.602127
243  1   9.521489  17.682765  14.962340
244  1   5.440851  16.322552  10.881701
245  1   6.801063  20.403190  14.962340
246  1   8.161276  19.042978  10.881701
247  1   6.801063  17.682765  12.241914
248  1   8.161276  16.322552  13.602127
249  1   9.521489  20.403190  17.682765
250  1   5.440851  19.042978  19.042978
251  1   9.521489  17.682765  20.403190
252  1   5.440851  16.322552  16.322552
253  1   6.801063  20.403190  20.403190
254  1   8.161276  19.042978  16.322552
255  1   6.801063  17.682765  17.682765
256  1   8.161276  16.322552  19.042978
257  1  14.962340   4.080638   1.360213
258  1  10.881701   2.720425   2.720425
259  1  14.962340   1.360213   4.080638
260  1  10.881701   0.000000   0.000000
261  1  12.241914   4.080638   4.080638
262  1  13.602127   2.720425   0.000000
263  1  12.241914   1.360213   1.360213
264  1  13.602127   0.000000   2.720425
265  1  14.962340   4.080638   6.801063
266  1  10.881701   2.720425   8.161276
267  1  14.962340   1.360213   9.521489
268  1  10.881701   0.000000   5.440851
269  1  12.241914   4.080638   9.521489
270  1  13.602127   2.720425   5.440851
271  1  12.241914   1.360213   6.801063
272  1  13.602127   0.000000   8.161276
273  1  14.962340   4.080638  12.241914
274  1  10.881701   2.720425  13.602127
275  1  14.962340   1.360213  14.962340
276  1  10.881701   0.000000  10.881701
277  1  12.241914   4.080638  14.962340
278  1  13.602127   2.720425  10.881701
279  1  12.241914   1.360213  12.241914
280  1  13.602127   0.000000  13.602127
281  1  14.962340   4.080638  17.682765
282  1  10.881701   2.720425  19.042978
283  1  14.962340   1.360213  20.403190
284  1  10.881701   0.000000  16.322552
285  1  12.241914   4.080638  20.403190
286  1  13.602127   2.720425  16.322552
287  1  12.241914   1.360213  17.682765
288  1  13.602127   0.000000  19.042978
289  1  14.962340   9.521489   1.360213
290  1  10.881701   8.161276   2.720425
291  1  14.962340   6.801063   4.080638
292  1  10.881701   5.440851   0.000000
293  1  12.241914   9.521489   4.080638
294  1  13.602127   8.161276   0.000000
295  1  12.241914   6.801063   1.360213
296  1  13.602127   5.440851   2.720425
297  1  14.962340   9.521489   6.801063
298  1  10.881701   8.161276   8.161276
299  1  14.962340   6.801063   9.521489
300  1  10.881701   5.440851   5.440851
301  1  12.241914   9.521489   9.521489
302  1  13.602127   8.161276   5.440851
303  1  12.241914   6.801063   6.801063
304  1  13.602127   5.440851   8.161276
305  1  14.962340   9.521489  12.241914
306  1  10.881701   8.161276  13.602127
307  1  14.962340   6.801063  14.962340
308  1  10.881701   5.440851  10.881701
309  1  12.241914   9.521489  14.962340
310  1  13.602127   8.161276  10.881701
311  1  12.241914   6.801063  12.241914
312  1  13.602127   5.440851  13.602127
313  1  14.962340   9.521489  17.682765
314  1  10.881701   8.161276  19.042978
315  1  14.962340   6.801063  20.403190
316  1  10.881701   5.440851  16.322552
317  1  12.241914   9.521489  20.403190
318  1  13.602127   8.161276  16.322552
319  1  12.241914   6.801063  17.682765
320  1  13.602127   5.440851  19.042978
321  1  14.962340  14.962340   1.360213
322  1  10.881701  13.602127   2.720425
323  1  14.962340  12.241914   4.080638
324  1  10.881701  10.881701   0.000000
325  1  12.241914  14.962340   4.080638
326  1  13.602127  13.602127   0.000000
327  1  12.241914  12.241914   1.360213
328  1  13.602127  10.881701   2.720425
329  1  14.962340  14.962340   6.801063
330  1  10.881701  13.602127   8.161276
331  1  14.962340  12.241914   9.521489
332  1  10.881701  10.881701   5.440851
333  1  12.241914  14.962340   9.521489
334  1  13.602127  13.602127   5.440851
335  1  12.241914  12.241914   6.801063
336  1  13.602127  10.881701   8.161276
337  1  14.962340  14.962340  12.241914
338  1  10.881701  13.602127  13.602127
339  1  14.962340  12.241914  14.962340
340  1  10.881701  10.881701  10.881701
341  1  12.241914  14.962340  14.962340
342  1  13.602127  13.602127  10.881701
343  1  12.241914  12.241914  12.241914
344  1  13.602127  10.881701  13.602127
345  1  14.962340  14.962340  17.682765
346  1  10.881701  13.602127  19.042978
347  1  14.962340  12.241914  20.403190
348  1  10.881701  10.881701  16.322552
349  1  12.241914  14.962340  20.403190
350  1  13.602127  13.602127  16.322552
351  1  12.241914  12.241914  17.682765
352  1  13.602127  10.881701  19.042978
353  1  14.962340  20.403190   1.360213
354  1  10.881701  19.042978   2.720425
355  1  14.962340  17.682765   4.080638
356  1  10.881701  16.322552   0.000000
357  1  12.241914  20.403190   4.080638
358  1  13.602127  19.042978   0.000000
359  1  12.241914  17.682765   1.360213
360  1  13.602127  16.322552   2.720425
361  1  14.962340  20.403190   6.801063
362  1  10.881701  19.042978   8.161276
363  1  14.962340  17.682765   9.521489
364  1  10.881701  16.322552   5.440851
365  1  12.241914  20.403190   9.521489
366  1  13.602127  19.042978   5.440851
367  1  12.241914  17.682765   6.801063
368  1  13.602127  16.322552   8.161276
369  1  14.962340  20.403190  12.241914
370  1  10.881701  19.042978  13.602127
371  1  14.962340  17.682765  14.962340
372  1  10.881701  16.322552  10.881701
373  1  12.241914  20.403190  14.962340
374  1  13.602127  19.042978  10.881701
375  1  12.241914  17.682765  12.241914
376  1  13.602127  16.322552  13.602127
377  1  14.962340  20.403190  17.682765
378  1  10.881701  19.042978  19.042978
379  1  14.962340  17.682765  20.403190
380  1  10.881701  16.322552  16.322552
381  1  12.241914  20.403190  20.403190
382  1  13.602127  19.042978  16.322552
383  1  12.241914  17.682765  17.682765
384  1  13.602127  16.322552  19.042978
385  1  20.403190   4.080638   1.360213
386  1  16.322552   2.720425   2.720425
387  1  20.403190   1.360213   4.080638
388  1  16.322552   0.000000   0.000000
389  1  17.682765   4.080638   4.080638
390  1  19.042978   2.720425   0.000000
391  1  17.682765   1.360213   1.360213
392  1  19.042978   0.000000   2.720425
393  1  20.403190   4.080638   6.801063
394  1  16.322552   2.720425   8.161276
395  1  20.403190   1.360213   9.521489
396  1  16.322552   0.000000   5.440851
397  1  17.682765   4.080638   9.521489
398  1  19.042978   2.720425   5.440851
399  1  17.682765   1.360213   6.801063
400  1  19.042978   0.000000   8.161276
401  1  20.403190   4.080638  12.241914
402  1  16.322552   2.720425  13.602127
403  1  20.403190   1.360213  14.962340
404  1  16.322552   0.000000  10.881701
405  1  17.682765   4.080638  14.962340
406  1  19.042978   2.720425  10.881701
407  1  17.682765   1.360213  12.241914
408  1  19.042978   0.000000  13.602127
409  1  20.403190   4.080638  17.682765
410  1  16.322552   2.720425  19.042978
411  1  20.403190   1.360213  20.403190
412  1  16.322552   0.000000  16.322552
413  1  17.682765   4.080638  20.403190
414  1  19.042978   2.720425  16.322552
415  1  17.682765   1.360213  17.682765
416  1  19.042978   0.000000  19.042978
417  1  20.403190   9.521489   1.360213
418  1  16.322552   8.161276   2.720425
419  1  20.403190   6.801063   4.080638
420  1  16.322552   5.440851   0.000000
421  1  17.682765   9.521489   4.080638
422  1  19.042978   8.161276   0.000000
423  1  17.682765   6.801063   1.360213
424  1  19.042978   5.440851   2.720425
425  1  20.403190   9.521489   6.801063
426  1  16.322552   8.161276   8.161276
427  1  20.403190   6.801063   9.521489
428  1  16.322552   5.440851   5.440851
429  1  17.682765   9.521489   9.521489
430  1  19.042978   8.161276   5.440851
431  1  17.682765   6.801063   6.801063
432  1  19.042978   5.440851   8.161276
433  1  20.403190   9.521489  12.241914
434  1  16.322552   8.161276  13.602127
435  1  20.403190   6.801063  14.962340
436  1  16.322552   5.440851  10.881701
437  1  17.682765   9.521489  14.962340
438  1  19.042978   8.161276  10.881701
439  1  17.682765   6.801063  12.241914
440  1  19.042978   5.440851  13.602127
441  1  20.403190   9.521489  17.682765
442  1  16.322552   8.161276  19.042978
443  1  20.403190   6.801063  20.403190
444  1  16.322552   5.440851  16.322552
445  1  17.682765   9.521489  20.403190
446  1  19.042978   8.161276  16.322552
447  1  17.682765   6.801063  17.682765
448  1  19.042978   5.440851  19.042978
449  1  20.403190  14.962340   1.360213
450  1  16.322552  13.602127   2.720425
451  1  20.403190  12.241914   4.080638
452  1  16.322552  10.881701   0.000000
453  1  17.682765  14.962340   4.080638
454  1  19.042978  13.602127   0.000000
455  1  17.682765  12.241914   1.360213
456  1  19.042978  10.881701   2.720425
457  1  20.403190  14.962340   6.801063
458  1  16.322552  13.602127   8.161276
459  1  20.403190  12.241914   9.521489
460  1  16.322552  10.881701   5.440851
461  1  17.682765  14.962340   9.521489
462  1  19.042978  13.602127   5.440851
463  1  17.682765  12.241914   6.801063
464  1  19.042978  10.881701   8.161276
465  1  20.403190  14.962340  12.241914
466  1  16.322552  13.602127  13.602127
467  1  20.403190  12.241914  14.962340
468  1  16.322552  10.881701  10.881701
469  1  17.682765  14.962340  14.962340
470  1  19.042978  13.602127  10.881701
471  1  17.682765  12.241914  12.241914
472  1  19.042978  10.881701  13.602127
473  1  20.403190  14.962340  17.682765
474  1  16.322552  13.602127  19.042978
475  1  20.403190  12.241914  20.403190
476  1  16.322552  10.881701  16.322552
477  1  17.682765  14.962340  20.403190
478  1  19.042978  13.602127  16.322552
479  1  17.682765  12.241914  17.682765
480  1  19.042978  10.881701  19.042978
481  1  20.403190  20.403190   1.360213
482  1  16.322552  19.042978   2.720425
483  1  20.403190  17.682765   4.080638
484  1  16.322552  16.322552   0.000000
485  1  17.682765  20.403190   4.080638
486  1  19.042978  19.042978   0.000000
487  1  17.682765  17.682765   1.360213
488  1  19.042978  16.322552   2.720425
489  1  20.403190  20.403190   6.801063
490  1  16.322552  19.042978   8.161276
491  1  20.403190  17.682765   9.521489
492  1  16.322552  16.322552   5.440851
493  1  17.682765  20.403190   9.521489
494  1  19.042978  19.042978   5.440851
495  1  17.682765  17.682765   6.801063
496  1  19.042978  16.322552   8.161276
497  1  20.403190  20.403190  12.241914
498  1  16.322552  19.042978  13.602127
499  1  20.403190  17.682765  14.962340
500  1  16.322552  16.322552  10.881701
501  1  17.682765  20.403190  14.962340
502  1  19.042978  19.042978  10.881701
503  1  17.682765  17.682765  12.241914
504  1  19.042978  16.322552  13.602127
505  1  20.403190  20.403190  17.682765
506  1  16.322552  19.042978  19.042978
507  1  20.403190  17.682765  20.403190
508  1  16.322552  16.322552  16.322552
509  1  17.682765  20.403190  20.403190
510  1  19.042978  19.042978  16.322552
511  1  17.682765  17.682765  17.682765
512  1  19.042978  16.322552  19.042978
513  1   2.720425   2.720425   2.720425
514  1   8.161276   2.720425   2.720425
515  1   2.720425   8.161276   2.720425
516  1   2.720425   2.720425   8.161276
517  1   8.161276   8.161276   2.720425
518  1   2.720425   8.161276   8.161276
519  1   8.161276   2.720425   8.161276
520  1   8.161276   8.161276   8.161276
521  1  13.602127   2.720425   2.720425
522  1   2.720425  13.602127   2.720425

