LAMMPS data file via write_data, version 29 Aug 2024, timestep = 10000000, units = metal

512 atoms
2 atom types

0 21.76561954 xlo xhi
0 21.76561954 ylo yhi
0 21.76561954 zlo zhi

Masses

1 28.0855
2 12.011

Atoms # atomic

1 1 21.58945228979645 21.56457437296644 21.726310547489415 -1 -1 -1
2 1 21.71981230549359 2.8154148600286413 2.655173521268847 -1 0 0
3 1 2.476018298941732 21.618155629461093 2.7673653054561003 0 -1 0
4 1 2.5948063614707384 2.664639579216862 0.02381131908005326 0 0 0
5 1 1.1757443485211585 1.1670339805530654 1.3872153211972236 0 0 0
9 1 5.439238522855786 0.2091553693088437 0.1060760518245887 0 0 0
10 1 5.402502970353135 2.87044818680831 2.821217763114394 0 0 0
11 1 8.203954562233545 0.304943077726823 2.7997399076163463 0 0 0
12 1 8.098920849095185 2.661962673763593 0.03824573035773745 0 0 0
13 1 6.631029913762873 1.5358337888771547 1.5032875276469053 0 0 0
17 1 10.901946255267589 0.12846765886058947 0.015379960401031019 0 0 0
18 1 10.879712312753156 2.8557869665261766 2.786818822947975 0 0 0
21 1 12.220339264638495 1.3899650687277452 1.429222173977537 0 0 0
19 1 13.621616824683253 0.06431950146185689 2.764612614718105 0 0 0
20 1 13.771271268897085 2.526173143753959 0.05217921663876449 0 0 0
25 2 16.418854503346598 0.14289497038234403 21.66320617954928 0 0 -1
26 1 16.43914819680344 2.6695409219985105 2.798822421460746 0 0 0
29 1 17.849389041274907 1.3296647687127356 1.4186803779288057 0 0 0
27 1 19.00765739485264 0.021492711519291094 2.7878152275016994 0 0 0
28 1 19.069947349865156 2.6355806735576253 21.693115611012253 0 0 -1
33 1 21.585057990985877 5.377033855094077 21.7211036752086 -1 0 -1
35 1 2.575771356069404 5.5154378530221475 2.5935583974349816 0 0 0
8 1 4.032972786388689 3.992514411721491 1.3520030677467847 0 0 0
41 1 5.35141043838574 5.444053970206218 0.04342000313834048 0 0 0
43 1 8.265365782678046 5.2624554699349915 2.8418573542998127 0 0 0
16 1 9.559818035423307 4.065933817935326 1.3167796865151922 0 0 0
49 1 11.150653851436132 5.372556840514773 0.12096646125246126 0 0 0
24 1 15.03330361891908 4.083942922236511 1.3503389187988823 0 0 0
51 1 13.600678669848078 5.275995282800332 2.7149120478790985 0 0 0
57 1 16.404117328956982 5.321500193599446 0.06190001467967091 0 0 0
32 1 20.4065262048577 3.9640455707750655 1.3169905902753634 0 0 0
59 1 19.144343765806912 5.294465921828535 2.6767893008280614 0 0 0
34 1 21.64592228440272 8.083148149954727 2.6473608198635157 -1 0 0
36 1 2.6475599266377596 7.922154169738477 21.669024035406125 0 0 -1
37 1 1.2238338210251203 6.794616814704044 1.2197720864578954 0 0 0
42 1 5.295143427773754 8.031932322835512 2.8839673147989107 0 0 0
44 1 8.198381227517704 8.22951873470794 21.742623789204472 0 0 -1
45 1 6.828720675368636 6.774206964660139 1.4298826883715514 0 0 0
50 1 10.839369683632398 7.948299948393908 2.7420583968062067 0 0 0
53 1 12.364226482440198 6.774749241604878 1.3870266925160275 0 0 0
52 1 13.757322767572242 8.084269895618313 21.682177802856504 0 0 -1
58 1 16.42005412429249 8.223045665513656 2.5820080942534926 0 0 0
61 1 18.009928822181152 6.866849364462949 1.2967919853987768 0 0 0
60 1 19.13536739128417 8.317019168891576 21.683025544656868 0 0 -1
65 1 0.04010660244653652 10.88000976465776 0.08390314844666 0 0 0
67 1 2.804752859180331 10.672274298319106 2.8109617043809987 0 0 0
69 1 1.464361142996821 12.191284053769149 1.3559788340043366 0 0 0
40 1 4.071686671036842 9.220457144761875 1.3356021602416999 0 0 0
73 1 5.444011282909891 10.75186755187195 21.660793139237708 0 0 -1
75 1 8.257870211805315 10.862128468050464 2.5857586975380245 0 0 0
77 1 6.874230031228916 12.101944908324327 1.1936061650634866 0 0 0
48 1 9.73162239553866 9.487024566643429 1.1581862643432927 0 0 0
81 1 11.152848721353127 10.807827423545975 21.744796583420484 0 0 -1
85 1 12.183184660541109 12.493856706458741 1.1594037745029129 0 0 0
56 1 14.976824354299417 9.496814420458769 1.2686121709191513 0 0 0
83 1 13.34194673068546 10.831165644563217 2.546246551451203 0 0 0
89 1 16.33699293268444 10.94568519678848 21.557123454965108 0 0 -1
93 1 17.71936299066249 12.244711667983108 1.3129656878748823 0 0 0
64 1 20.407710736502604 9.510293401506093 1.3107875277999606 0 0 0
91 1 19.077673041971334 10.828942001970761 2.785659330570249 0 0 0
66 1 21.71338648993735 13.490103806999716 2.8002648947529103 -1 0 0
68 1 2.8076065670930594 13.561032269492754 21.74576901281625 0 0 -1
72 1 4.012900648558716 14.881299054796157 1.5136973518249477 0 0 0
74 1 5.508777277557544 13.445542470327181 2.6543669409312116 0 0 0
76 1 8.308521082768765 13.601348296552288 21.69916062947026 0 0 -1
80 1 9.444341509745408 15.13311987197528 1.2057463836927642 0 0 0
82 1 10.912580347424546 13.683807506010927 2.694108241299681 0 0 0
84 1 13.873535572137332 13.781153010548508 21.68944845340021 0 0 -1
88 1 14.830519624097814 15.125958157256148 1.4376804719477503 0 0 0
90 1 16.24442863308329 13.659657008150672 2.845663407352068 0 0 0
92 1 18.93980409864123 13.610335962355132 0.04039033498382256 0 0 0
96 1 20.30521505188921 14.789804813192111 1.5357662775975744 0 0 0
97 1 21.594617316314633 16.208975508319668 0.052815127257744725 -1 0 0
99 1 2.668869137934127 16.30796965767833 2.8223718268559304 0 0 0
101 1 1.2417488873403457 17.543638740559192 1.307227132361538 0 0 0
105 1 5.2659347869243005 16.333879322822686 0.14937631596735992 0 0 0
107 1 8.029264836952779 16.229166752603383 2.699602147351076 0 0 0
109 1 6.5939146448608845 17.88288239667469 1.420838850331166 0 0 0
113 1 10.986716896394965 16.504393238898224 0.03009039915887109 0 0 0
117 1 12.35846508161927 17.834016367572808 1.403576740584966 0 0 0
115 1 13.601353909971387 16.528183338011644 2.6472208213831134 0 0 0
121 1 16.122641951423525 16.344571566657 0.01465811802196064 0 0 0
125 1 17.580760323291887 17.757065386462425 1.1999757840818832 0 0 0
123 1 18.849136954276872 16.32978258689083 2.571657931899587 0 0 0
98 1 21.728424916460682 18.929950709639257 2.5730482722410493 -1 0 0
100 1 2.6067717618439556 18.96102423771057 0.09817859958130085 0 0 0
104 1 3.8511012486298677 20.533444295880884 1.3487710326627476 0 0 0
106 1 5.407320129901206 19.315331850118646 2.9096129273766316 0 0 0
108 1 7.93368801878517 19.009667061044645 0.005542572828097525 0 0 0
112 1 9.434239386638982 20.389807902543943 1.3103479711171169 0 0 0
114 1 10.888758255980576 19.046102671120433 2.8850388051886102 0 0 0
116 1 13.629986803676235 19.213417292156695 21.604689372482774 0 0 -1
120 1 14.838915967784336 20.540666353847012 1.3800893444389495 0 0 0
122 1 16.348444691155517 19.165698524472297 2.588220952618848 0 0 0
124 1 18.85336369956122 19.08232954466892 21.73524539267988 0 0 -1
128 1 20.22606625512299 20.267769388940167 1.408545234511271 0 0 0
129 1 21.642510836551914 21.574605415712895 5.206123754355927 -1 -1 0
132 1 2.713492874620848 2.6574921051063436 5.493787586768402 0 0 0
7 1 4.050079883450849 1.3349304536413067 4.181863951612415 0 0 0
137 1 5.413540168089161 0.2832978231621375 5.6956783232241595 0 0 0
140 1 8.233002472749034 2.8441755934792954 5.597663939212338 0 0 0
15 1 9.543223960713693 1.5759355977414493 4.262920480267161 0 0 0
145 1 10.826166524630944 21.722752318819232 5.597249259632359 0 -1 0
23 1 14.870186560639455 1.4034153276863544 4.163689582515116 0 0 0
148 1 13.505177643324208 2.5972672786535935 5.524842123022488 0 0 0
153 1 16.235737477882267 0.0828526500665135 5.529722412878037 0 0 0
31 1 20.443315182760237 1.4834055160521311 4.142809423715728 0 0 0
156 1 18.94973548674279 2.8703517068158284 5.446761728059973 0 0 0
6 1 1.348720975011174 3.975673614203325 4.1098647357939715 0 0 0
161 1 21.747758178158588 5.410289549055776 5.447630360566447 -1 0 0
169 1 5.723631792332342 5.423273045806404 5.400172302877923 0 0 0
14 1 6.922368092782455 3.947107794609268 4.177712854323885 0 0 0
22 1 12.156703045608955 4.0791580599955655 4.30340346834512 0 0 0
177 1 11.036995276184083 5.498138674059376 5.753026989789634 0 0 0
30 1 17.809479855115153 4.065824186016681 3.90568067217209 0 0 0
185 1 16.291982670891077 5.377032797178399 5.290174132412461 0 0 0
164 1 2.6853874813552223 8.192251745317353 5.586482613615879 0 0 0
39 2 4.0643029026833375 6.7129333770609705 4.136725084086842 0 0 0
172 1 8.123622309838552 8.28735812472977 5.299020116001194 0 0 0
47 1 9.672630139707 6.601823717609073 4.236483750421912 0 0 0
55 1 15.004989761765293 6.79965207499795 3.900617856332383 0 0 0
180 1 13.720800146895622 8.19734552499095 5.145250130423453 0 0 0
63 1 20.254036765917228 6.672777334955418 4.038310492398203 0 0 0
188 1 18.866608121487914 8.019938510937848 5.341851337399484 0 0 0
38 1 1.2802128599798959 9.355136039192118 4.104498878592522 0 0 0
193 1 21.504313241914833 10.646325030885077 5.462733571708712 -1 0 0
71 1 4.065379119222495 12.181467508157517 3.988142403009467 0 0 0
201 1 5.687239999854612 11.005342096204757 5.2493487371120615 0 0 0
46 1 6.779118115642023 9.521020918269809 3.868814103424874 0 0 0
54 1 12.019482539094303 9.386427679850108 4.023254992239875 0 0 0
79 1 9.473300770969932 12.190342297977992 3.932394692538121 0 0 0
209 1 10.667330761997329 10.931361753746545 5.388789247289212 0 0 0
87 1 14.801121795653394 12.117230201968198 4.036517791323987 0 0 0
62 1 17.6864158086167 9.521132713044699 4.051624289250687 0 0 0
217 1 16.12951678137538 10.794938962985439 5.370138913691241 0 0 0
95 1 20.493547587226352 12.165135535344819 4.137604594445964 0 0 0
70 1 1.3117471776049183 14.914804466119508 4.123877899379239 0 0 0
196 1 2.5606846578344356 13.316034003160224 5.215553779907833 0 0 0
78 1 6.770073943419983 14.903335046155368 4.1316137082977535 0 0 0
204 1 8.281949944482742 13.584340684915988 5.403243190458235 0 0 0
86 1 12.288302193571395 15.089636495073254 4.060641738401628 0 0 0
212 1 13.48675824021496 13.521050928288984 5.481741865760967 0 0 0
94 1 17.562430443666933 15.0716532205739 4.196930547044116 0 0 0
220 1 18.926363937400275 13.582370152502994 5.511397961601985 0 0 0
225 1 21.663325673696583 16.239405278197463 5.393293918344969 -1 0 0
103 1 4.109491850766666 17.77933781262467 3.967656771515419 0 0 0
233 1 5.451311231146467 16.32576680835675 5.247247065984026 0 0 0
111 1 9.43187482759245 17.623272412646607 3.9471569751423883 0 0 0
241 1 11.044334620533201 16.47082752477667 5.396026701224568 0 0 0
119 1 14.96972665911408 17.68112074384476 4.217182012614883 0 0 0
249 1 16.359871103530864 16.526249539727367 5.534388422247504 0 0 0
127 1 20.32426596905188 17.603342841717893 3.9329021805554643 0 0 0
102 1 1.2291523112055323 20.209711561821717 4.000333070010258 0 0 0
228 1 2.5023437487086655 18.867219545232203 5.308266590823162 0 0 0
110 1 7.026444277774768 20.641695407058393 4.193676016205736 0 0 0
236 1 8.104820677032517 18.95760241460846 5.326962821069542 0 0 0
118 1 12.073547621319861 20.560713537220458 4.103460386149104 0 0 0
244 1 13.544129250086826 19.25090412720296 5.453697867538795 0 0 0
126 1 17.587717620918085 20.472729197744506 4.1250869003526365 0 0 0
252 1 18.92418574771586 18.931667651057484 5.314340002795809 0 0 0
130 1 0.13797020532244963 2.55784808628989 8.015118664688243 0 0 0
131 1 2.930057268700878 21.49698302897566 8.30516591811994 0 -1 0
133 1 1.4848878813076398 1.1854689406100196 6.762871260557895 0 0 0
138 1 5.438780746619388 2.7862997439741126 8.2665994715978 0 0 0
139 1 8.113094694097445 21.59042864691191 8.323488742962951 0 -1 0
141 1 6.91022175306619 1.4428583649597975 7.111828042423842 0 0 0
146 1 10.821734842466999 2.6123466999740863 8.292698410344986 0 0 0
149 1 12.169331426642408 1.3142099001861454 6.795984954567589 0 0 0
147 1 13.591988540564358 21.736247394574505 8.171596368654459 0 -1 0
154 1 16.31570207992421 2.857291389764127 8.219741706623683 0 0 0
157 1 17.488630717908126 1.5194001572317728 6.835971711394167 0 0 0
155 1 19.038917708594028 0.19681143611982088 7.937125690662476 0 0 0
163 1 2.649312335000662 5.5396306121378265 8.04602757672984 0 0 0
136 1 4.033600553971425 4.291370578058944 6.731903050138715 0 0 0
171 1 8.252557817223481 5.468865086992357 8.423191495545527 0 0 0
144 1 9.559625977689077 4.199577192463482 7.049542990463808 0 0 0
152 1 14.986872544663264 4.069175950906899 6.800660633015441 0 0 0
179 1 13.715405486564109 5.466451511098438 8.298997834677632 0 0 0
160 1 20.43558433387344 4.108405882875714 6.871695969911677 0 0 0
187 1 19.022388510921246 5.424984739799048 8.1867862588699 0 0 0
162 1 21.642293032282094 8.287541421613167 8.212375394333474 -1 0 0
165 1 1.2743064069286167 6.914981297283798 6.890687255946331 0 0 0
170 1 5.507984687860724 8.168643397050133 8.190791748778981 0 0 0
173 1 6.906943925460304 6.822707818190678 6.930537412800646 0 0 0
178 1 10.924046813434243 8.120507283474105 8.052206980881328 0 0 0
181 1 12.623272947719455 6.931021818182458 6.917161019278526 0 0 0
186 1 16.29578934518957 8.099761709754379 8.089215421534409 0 0 0
189 1 17.649353003034108 6.725717901265814 6.773920851763038 0 0 0
195 1 2.687602608881565 10.986586598494863 7.912383407795668 0 0 0
197 1 1.0453589278403734 12.149404602751991 6.601194954011939 0 0 0
168 1 4.329016676003428 9.638943365312889 6.610271416329912 0 0 0
203 1 8.0471417200081 10.982880936131236 8.089453114656568 0 0 0
205 1 6.941989610589869 12.343619095625288 6.6469555601925014 0 0 0
176 1 9.234699369338216 9.55292108894267 6.670753966540141 0 0 0
213 1 12.00296298867111 12.279174434238744 6.742914834515294 0 0 0
184 1 14.838014030383643 9.419409683091708 6.6710375824364245 0 0 0
211 1 13.556223809450811 10.8657396221742 8.11430208479227 0 0 0
221 1 17.422888164625686 12.149211113756643 6.870459449114734 0 0 0
192 1 20.10315606552029 9.552917649072171 6.881964018327271 0 0 0
219 1 18.897946418356707 11.02000617258765 8.228899647858869 0 0 0
194 1 21.684625831244695 13.6509286498437 8.10264043261669 -1 0 0
200 1 4.076964652027939 14.726845106424479 6.512736586012916 0 0 0
202 1 5.513946714598601 13.511204014682283 8.11118756095741 0 0 0
208 1 9.645692850277749 15.100892849019893 6.68787988220049 0 0 0
210 1 10.925825810057125 13.723891318739758 8.29968244417021 0 0 0
216 1 14.973055379963997 14.91554896068624 6.819410931428009 0 0 0
218 1 16.155077876421654 13.540786590239474 8.186657648886184 0 0 0
224 1 20.16210260313292 15.028290930196682 6.755136060573854 0 0 0
227 1 2.773531018799531 16.18162212202702 7.85218033053192 0 0 0
229 1 1.347808173900815 17.584275855111784 6.837892885391056 0 0 0
235 1 8.135823644979185 16.278834892065763 8.010152921055072 0 0 0
237 1 6.641764993767884 17.637078720306793 6.669633192097007 0 0 0
245 2 12.314019257277927 17.82780210285596 6.6470588124343815 0 0 0
243 1 13.741580146147141 16.50379409209232 8.078222751044343 0 0 0
253 1 17.71780066769901 17.767223029319208 6.866422860433251 0 0 0
251 1 18.809344635524468 16.363812880796306 8.362845598814523 0 0 0
226 1 21.674430275696285 18.949370715735412 8.145987253025348 -1 0 0
232 1 3.9844766260160744 20.35345135927711 6.590412627471539 0 0 0
234 1 5.329176217425832 19.09887801253112 7.985775590998707 0 0 0
240 1 9.42913530271662 20.384041008414645 6.866096113616338 0 0 0
242 1 10.86672255689245 19.109831759318954 8.014452895968484 0 0 0
248 1 14.986882661031068 20.46098316095693 6.826805420223884 0 0 0
250 1 16.371855000157215 19.18355712320355 8.217767947174627 0 0 0
256 1 20.402256710553 20.291288619329574 6.706558341145588 0 0 0
257 1 0.015106910461090146 21.74535854413422 10.851276804670771 0 -1 0
260 1 2.660555295422392 2.836550647981353 11.153895755648866 0 0 0
261 1 1.3276548087691828 1.3978905340176808 12.225493221241223 0 0 0
135 1 4.069272196303593 1.5411522318668285 9.596911326800132 0 0 0
265 1 5.2629539210184815 0.193816378773952 10.912879010835482 0 0 0
268 1 8.098512506712018 2.677090299627056 11.038826870338525 0 0 0
269 1 6.591367196494107 1.42036341010587 12.28033053112851 0 0 0
143 1 9.337746272506662 1.3492086310362943 9.612209861018483 0 0 0
273 1 10.66716974727217 21.708271242340306 10.756496215840164 0 -1 0
277 1 12.093082425688701 1.088543055933142 12.103243220152455 0 0 0
151 1 14.965709824657027 1.2990146172664732 9.489014502260686 0 0 0
276 1 13.46929966198622 2.649239013211682 10.836400630858899 0 0 0
281 1 16.43832837323716 0.10339719394928513 10.851459839499713 0 0 0
285 1 17.69548500235588 1.524962430872217 12.218067297291768 0 0 0
159 1 20.45532087484153 1.3025877217884179 9.376765943764841 0 0 0
284 1 19.11272256741699 2.7576810162565812 10.695063459755277 0 0 0
134 1 1.3520066272670734 3.995181275562688 9.527695860495603 0 0 0
289 1 0.01331249437314376 5.340639139355962 10.85120204098495 0 0 0
264 1 4.007509110533707 4.372682149043914 12.449415594536902 0 0 0
297 1 5.448198052539114 5.506824253316353 10.900400015357679 0 0 0
142 1 6.787136301245814 4.044458489390067 9.69326180624036 0 0 0
150 1 12.122209967443254 4.112792000885371 9.59836260600011 0 0 0
272 1 9.546605546780079 4.054424576396728 12.350589083055047 0 0 0
305 1 10.802400360130497 5.518098852823997 11.122429213923812 0 0 0
280 1 14.716178320591386 4.120251134089211 12.122859906061816 0 0 0
158 1 17.707246250219832 4.1440151783127614 9.359039188304346 0 0 0
313 1 16.219200271060185 5.52753727650372 10.820352938839362 0 0 0
288 1 20.411906308219255 4.111425200584876 12.216114939656187 0 0 0
292 1 2.774747461517603 8.119566182245242 10.766054729133819 0 0 0
293 1 1.4154760678932843 6.786636715480617 12.155322148737307 0 0 0
167 1 4.185078653754207 6.798483924462264 9.41715135013752 0 0 0
300 1 8.238547059575435 8.271061088174799 11.024310742480605 0 0 0
301 1 6.930544807225124 6.715259379593353 12.345246728111546 0 0 0
175 1 9.754361358899898 6.79422313568716 9.619223496791614 0 0 0
309 1 12.316241056772713 6.952376693967312 12.33748956415855 0 0 0
183 1 14.913427890252207 6.854719457230641 9.51817519490692 0 0 0
308 1 13.371351118893388 8.14241392504797 10.78201777915909 0 0 0
317 1 17.71797024129924 6.785760597779431 12.282049563597749 0 0 0
191 1 20.481357793519994 6.730715254716926 9.54655012703915 0 0 0
316 1 19.06235168179064 8.019248597189357 10.991029752322005 0 0 0
166 1 1.4085140698580891 9.67187922911089 9.610806710243095 0 0 0
321 1 21.691790134884624 10.960683879318147 10.969725237594849 -1 0 0
325 1 1.5281213570265468 12.293578540076405 12.384662007295093 0 0 0
199 1 4.272512556157648 12.261743674394356 9.452369209135611 0 0 0
296 1 4.289360710597836 9.453753710424255 12.2972078063521 0 0 0
329 1 5.5580468270546755 11.000682611833545 10.916223919522588 0 0 0
174 1 6.80957610982354 9.655052198361009 9.55954606607156 0 0 0
333 1 7.004742595584132 12.377359174305054 12.294980144632724 0 0 0
182 1 12.008909642807179 9.51583819689252 9.525150198581146 0 0 0
207 1 9.399934161397075 12.380159434846256 9.424806859271769 0 0 0
304 1 9.52116542915493 9.785199565186549 12.365239289456282 0 0 0
337 1 10.765718134138073 11.033353172949838 10.854963660974859 0 0 0
341 1 12.2027887454335 12.331756011732656 12.36682593487715 0 0 0
215 1 14.801327321641892 12.316053830118063 9.600194022438957 0 0 0
312 1 14.956424688146084 9.53999676045888 12.223672592449466 0 0 0
190 1 17.67426112340694 9.399761953937908 9.579906082247449 0 0 0
345 1 16.250411364410976 10.903904532189122 10.798564670778473 0 0 0
349 1 17.70758271491525 12.15303119898056 12.289174188785427 0 0 0
223 1 20.4131423618654 12.281830701480157 9.517800877557661 0 0 0
320 1 20.500325396216564 9.404672572091648 12.230754593612751 0 0 0
198 1 1.4823669278658904 14.90536978287619 9.43270743090756 0 0 0
324 1 2.933970710832788 13.641973437750016 10.900255583815055 0 0 0
328 1 4.166171531599873 15.118640119392234 12.076961993635742 0 0 0
206 1 6.86684830729417 14.990139188044655 9.417035124703354 0 0 0
332 1 8.107127784187567 13.733532646822487 10.81141709303372 0 0 0
214 1 12.476010596250475 15.017273459818572 9.418135626382753 0 0 0
336 1 9.297444817750803 15.203985377178974 12.087412288823511 0 0 0
340 1 13.566159479463186 13.71179050957388 11.077512196920996 0 0 0
344 1 15.010782550700958 15.033119250379013 12.353923050471991 0 0 0
222 1 17.620491236945004 14.825306882183858 9.546065426498076 0 0 0
348 1 19.17727458947113 13.45304784431727 10.933181705490815 0 0 0
352 1 20.473251757783075 14.86625638044834 12.05586441125527 0 0 0
353 1 0.06364760136584206 16.305138018512082 10.725638732343425 0 0 0
357 1 1.455108425497073 17.606596047412317 12.397470580687363 0 0 0
231 1 3.990542843628975 17.585064581406403 9.355749791136892 0 0 0
361 1 5.545117974052854 16.526021649298304 10.793721368336104 0 0 0
365 1 6.704922490271211 17.78818813192479 12.246308314344251 0 0 0
239 1 9.332466387715279 17.971775182080744 9.457201265917215 0 0 0
369 1 10.807873505664844 16.454607432896484 10.633137103408549 0 0 0
373 1 12.273861217662965 17.538419642403877 12.129281202866087 0 0 0
247 1 15.020989348612604 17.747708987825355 9.418676147737822 0 0 0
377 1 16.469062747993362 16.312026307561702 11.000747031617419 0 0 0
381 1 17.696597275580622 17.82585581180247 12.36986503413973 0 0 0
255 1 20.368486282350027 17.54646422928489 9.53680642407894 0 0 0
230 1 1.1810264515259563 20.30020788465028 9.54858462130677 0 0 0
356 1 2.846160933834851 18.953756027869712 10.901257942507439 0 0 0
360 1 3.9711023798069904 20.435901291199777 12.172970499671216 0 0 0
238 1 6.392580735239005 20.434381377889036 9.494233776855022 0 0 0
364 1 7.874078288483208 19.24886984897495 10.696135393939981 0 0 0
246 1 12.242819048924275 20.477346835744502 9.39973824113168 0 0 0
368 1 9.36517795263073 20.38143342797211 12.210054263121037 0 0 0
372 1 13.556790677865646 19.028093920475946 10.738737732617208 0 0 0
376 1 15.035669845302502 20.35266332688772 12.093185012244751 0 0 0
254 1 17.894143233729622 20.549382695055577 9.585097094794236 0 0 0
380 1 19.146238385269072 19.12073460448237 10.976143471162318 0 0 0
384 1 20.490504406282657 20.446131405985795 12.285476343569943 0 0 0
258 1 0.041313655817218436 2.746993815154798 13.706715648323529 0 0 0
259 1 2.599457937734868 0.05596898884313318 13.668647408655461 0 0 0
263 1 4.108830243873413 1.3542585539083938 14.958010136347886 0 0 0
266 1 5.388684984556578 2.8437427832727473 13.542457312185372 0 0 0
267 1 8.009476292843202 0.12379043640575496 13.610360827117091 0 0 0
271 1 9.603863206238595 1.3958576355150998 14.725715240832491 0 0 0
274 1 11.188206844040733 2.8412700076287645 13.522168971846456 0 0 0
275 1 13.580841806032714 21.622479167875078 13.485978356272284 0 -1 0
279 1 14.799160930764714 1.5116363692516424 14.63980947433534 0 0 0
282 1 16.238185892123976 2.843983598010645 13.447218464620981 0 0 0
283 1 18.995553334514135 0.10804348149583189 13.577534411080979 0 0 0
287 1 20.294371967015977 1.4993685395116332 14.972796594803194 0 0 0
262 1 1.6384359232504548 4.07770959141721 15.003693965948411 0 0 0
291 1 2.6822413303286785 5.689001023243204 13.712825138511974 0 0 0
270 1 6.881022926778811 3.981372459505746 14.987467713879044 0 0 0
299 1 8.22009310654585 5.282206155642352 13.837487212927781 0 0 0
278 1 12.38533923157363 4.066609670209721 15.090567488818436 0 0 0
307 1 13.767535597746551 5.670285371049208 13.783598384509313 0 0 0
286 1 17.554049256096818 4.1650441655699355 14.86124476867058 0 0 0
315 1 18.985350303479766 5.319598369408893 13.628617995220203 0 0 0
290 1 21.726432537555926 8.166504775835401 13.604278094522334 -1 0 0
295 1 4.3645524111053735 6.725416130110587 15.087511367314464 0 0 0
298 1 5.7110135912956315 8.181187854710982 13.731945571025141 0 0 0
303 1 9.480410473397635 6.896408485129335 14.995438426660199 0 0 0
306 1 10.810233750071074 8.321510209043396 13.538269276608428 0 0 0
311 1 15.30269999737531 6.926640770948427 15.153836103558923 0 0 0
314 1 16.474427790818424 8.249380399020938 13.598881967204136 0 0 0
319 1 20.493797333648235 6.7267095066239815 14.968388735652173 0 0 0
294 1 1.4168960627573646 9.443802510617909 14.992573513864615 0 0 0
323 1 2.792706394649709 10.919251470181969 13.711363317257577 0 0 0
327 1 4.203186813461055 12.37438883325129 15.025538065416798 0 0 0
302 1 6.870539520816375 9.774312933376821 15.22849385153935 0 0 0
331 1 8.261578207359147 11.091391708708517 13.807532361819225 0 0 0
310 1 12.205691632936214 9.556678747124545 14.89432736851309 0 0 0
335 1 9.604158209390567 12.203638178819988 15.282297426518314 0 0 0
339 1 13.717387133338331 10.808504372053354 13.583804928919081 0 0 0
343 1 15.123913665418897 12.126727469494773 14.94436623513985 0 0 0
318 1 17.798119679101085 9.610894023874524 14.848784583636311 0 0 0
347 1 19.240026450648866 10.791369014137434 13.660523357843969 0 0 0
351 1 20.56372464075251 12.225463830020626 15.062851858164564 0 0 0
322 1 0.05334779662001845 13.697853161275713 13.556350719627087 0 0 0
326 1 1.4370734043737414 14.925911106196114 14.987027798284851 0 0 0
330 1 5.585925716334084 13.641499911267239 13.603424744242153 0 0 0
334 1 6.895204563424878 14.887625076562948 15.178705208155048 0 0 0
338 1 10.76970551038965 13.604737153790396 13.744912439401732 0 0 0
342 1 12.20549023128126 14.9617603975328 14.98242083624394 0 0 0
346 1 16.43245810603919 13.7233826924826 13.626697811096316 0 0 0
350 1 17.73901567246573 15.111012288623574 15.041885305050618 0 0 0
355 1 2.781441366013575 16.215496923371546 13.549660406463554 0 0 0
359 1 3.9994201256758215 17.607650830931668 15.082740658616677 0 0 0
363 1 7.975320623612984 16.29565252150562 13.66335844426278 0 0 0
367 1 9.499138204789844 17.625312976158142 14.920586009003976 0 0 0
371 1 13.723607672293507 16.413724235740172 13.710383419625947 0 0 0
375 1 14.957898443863455 17.884667779613636 15.121917875886762 0 0 0
379 1 19.160248035199988 16.387005713092897 13.668184722287855 0 0 0
383 1 20.618281225517986 17.62000707681589 15.131702270113157 0 0 0
354 1 21.736074515152055 19.064163255902148 13.66637170025411 -1 0 0
358 1 1.2208001054055768 20.514246107538984 14.96221776024061 0 0 0
362 1 5.389679253720116 19.07637447846409 13.768490954462811 0 0 0
366 1 6.9372769528832805 20.358066858753368 14.88795137682807 0 0 0
370 1 10.769606707989743 18.900334206771877 13.438657138935474 0 0 0
374 1 12.310527482080323 20.19412797507693 14.83832718752783 0 0 0
378 1 16.273852075136325 19.095303543765624 13.57462594420997 0 0 0
382 1 17.670667229639033 20.545355816423573 14.936614729300077 0 0 0
385 2 21.745325539464492 0.20907129706991945 16.532433405447097 -1 0 0
388 1 2.745172122157619 2.6671633218004405 16.50335125160428 0 0 0
389 1 1.4505001303465404 1.4120479229852805 18.04271469756838 0 0 0
393 1 5.596659360721187 21.727973258612263 16.27821674569286 0 -1 0
396 1 8.311198958027175 2.656886553193229 16.247854397516054 0 0 0
397 1 6.836896704420208 1.2717296255936825 17.431085304698833 0 0 0
401 1 10.961642461593113 21.70972486663445 16.17691111741463 0 -1 0
405 1 12.34797671494064 1.3149078195419588 17.438204679630235 0 0 0
404 1 13.517420230078423 2.669823746729406 16.2285852554776 0 0 0
409 1 16.194082584409568 0.30645385506828254 16.115770296498585 0 0 0
413 1 17.765569892451587 1.464166622157592 17.729321847028157 0 0 0
412 1 19.12565663107897 2.9547247267641703 16.28809342076394 0 0 0
417 1 0.14173375381989015 5.469802899961472 16.328505570886794 0 0 0
392 1 4.026129115164929 3.8537726172204367 17.847585507052706 0 0 0
425 1 5.457119326917292 5.231989033495206 16.581491632820168 0 0 0
400 1 9.666828113403481 4.018492357938616 17.777049998129588 0 0 0
433 1 11.001730166067388 5.553116443841291 16.28153014464124 0 0 0
408 1 14.920458675867987 3.97719092394788 17.670604927604163 0 0 0
441 1 16.31616149661183 5.318562073617063 16.445244150034558 0 0 0
416 1 20.42425198977251 4.275666263621243 17.745433443729453 0 0 0
420 1 2.980059937519623 8.147252311905556 16.269816328739843 0 0 0
421 1 1.5439737697645934 6.831572994770568 17.65583085508305 0 0 0
428 1 8.178809723542592 8.207474701137905 16.416765268017386 0 0 0
429 1 7.007381386969901 6.559126869625701 17.75764624596261 0 0 0
437 1 12.35086030413873 6.725661345373571 17.518288929283877 0 0 0
436 1 13.693192944631969 8.245312174681674 16.319664606261433 0 0 0
445 1 17.553618328494373 6.926271613021046 17.652634611040906 0 0 0
444 1 18.93172211540108 8.069250194797165 16.20161519190775 0 0 0
449 1 21.724949635637614 10.680450732508806 16.38556156379101 -1 0 0
453 1 1.5154620467258249 12.103315253710988 17.73135343747333 0 0 0
424 1 4.270025191970743 9.490535259859653 17.6466027464168 0 0 0
457 1 5.301949921751968 11.113042030165696 16.469108611509185 0 0 0
461 1 6.862715103867043 12.248786235913602 17.918470884467293 0 0 0
432 1 9.633412775890559 9.350614629004523 17.829750357119096 0 0 0
465 1 10.986413845573791 10.84944418281082 16.42267147112448 0 0 0
469 1 12.450039519026413 12.208060313952506 17.78438742267823 0 0 0
440 1 15.112824708253463 9.498293951812576 17.681339506692396 0 0 0
473 1 16.414372025935204 10.740097248944416 16.312778665618247 0 0 0
477 1 17.626015331757063 12.134952474674225 17.610560154212543 0 0 0
448 1 20.43357266816541 9.200370417921558 17.462417614293102 0 0 0
452 1 2.8634810143550387 13.7046834302749 16.594013241764866 0 0 0
456 1 4.221954678908495 14.826568932772057 18.04360213411081 0 0 0
460 1 8.19611598488902 13.619412640144755 16.527803027813217 0 0 0
464 1 9.54397558229999 15.01360751605117 17.74200516124726 0 0 0
468 1 13.56881924856969 13.456160173899956 16.21975688636707 0 0 0
472 1 14.890070475578815 14.85085883526618 17.669755017234824 0 0 0
476 1 19.071261884590033 13.605767053025405 16.261896336477033 0 0 0
480 1 20.314803515997205 15.122460532133 17.735379694992513 0 0 0
481 1 0.08543763203018978 16.303871873663518 16.321107628912767 0 0 0
485 1 1.564373466562329 17.734712757760953 17.756099377782537 0 0 0
489 1 5.505836801568077 16.30066865302251 16.373621781639226 0 0 0
493 1 6.757087945938826 17.707607534556356 17.764756549046123 0 0 0
497 1 10.846437290797603 16.32857060833533 16.35399987808273 0 0 0
501 1 12.22008762127074 17.574380061780964 17.684178002821916 0 0 0
505 1 16.31411625135094 16.30086189459186 16.271268584725476 0 0 0
509 1 17.610928701349884 17.579601296499348 17.629896208007573 0 0 0
484 1 2.8507013490161595 19.327995977858002 16.305817819268082 0 0 0
488 1 4.14538208166496 20.57114152313174 17.875121251749267 0 0 0