LAMMPS data file via write_data, version 29 Aug 2024, timestep = 10000000, units = metal

512 atoms
2 atom types

0 21.75660358 xlo xhi
0 21.75660358 ylo yhi
0 21.75660358 zlo zhi

Masses

1 28.0855
2 12.011

Atoms # atomic

1 1 21.705426440259014 0.09809531455415295 0.04866275267644311 -1 0 0
2 1 0.04594561174137145 2.7239120592186303 2.72795519269873 0 0 0
3 1 2.8387148650103806 0.061147375199376824 2.8632831386320468 0 0 0
4 1 2.693005953733678 2.9601140561010797 0.0662536033962587 0 0 0
5 1 1.4880694035565942 1.4742727050804494 1.438251324610855 0 0 0
9 1 5.46084743263697 21.63654161029707 0.19450352751606367 0 -1 0
10 1 5.641256158024412 2.7259966285742645 2.689282104453726 0 0 0
11 1 8.092379976978926 21.630946592873507 2.8982355543784286 0 -1 0
12 1 8.257319749232176 2.410413749231416 21.684961798840913 0 0 -1
13 1 6.8427195988709535 1.2782568712280373 1.4919338642431386 0 0 0
17 1 10.87997432261055 21.652009254245204 0.1676454055813202 0 -1 0
18 1 10.80454059656825 2.8056463835237744 2.6000693665112165 0 0 0
21 1 12.091473915095222 1.3351475572892504 1.3944661410155228 0 0 0
19 1 13.570932067584616 0.08276833997916755 2.7128385823669534 0 0 0
20 1 13.542236863805574 2.629151705904896 21.71085005164798 0 0 -1
25 1 16.3394435603767 0.057288057011351624 21.57955165797136 0 0 -1
26 1 16.24370408937598 2.769972646537313 2.640081838560828 0 0 0
29 1 17.679875474219788 1.3723161184607195 1.2716426464097117 0 0 0
27 1 18.924313852685017 0.26536439678622264 2.801650925442872 0 0 0
28 1 19.127459917294395 2.64525454898467 0.018040560044492334 0 0 0
33 1 21.63549598570837 5.327809231943402 0.1515912326984154 -1 0 0
35 1 2.751654147705908 5.5151342033500566 2.6500885775100005 0 0 0
8 1 4.324547585692943 4.112877859010602 1.4397003010445781 0 0 0
41 1 5.55512946515352 5.477920986225093 21.704333031727746 0 0 -1
43 1 8.194670629805428 5.39261608356882 2.5543079507035586 0 0 0
16 1 9.566516550976234 3.925719639522225 1.2568274265887238 0 0 0
49 1 11.08837445063347 5.278409694507208 21.655497928898118 0 0 -1
24 1 14.93714018973488 4.073721187316862 1.2524410535427268 0 0 0
51 1 13.615527190944904 5.285869762152006 2.6575492719240765 0 0 0
57 1 16.27279391931999 5.304175307451193 21.607341890115173 0 0 -1
32 1 20.424227390663795 4.065610470897205 1.5930488683821802 0 0 0
59 1 18.9599843885993 5.40344828082657 2.6318771650673844 0 0 0
34 1 21.5970950983898 8.084072901437668 2.69669452462676 -1 0 0
36 1 2.5801106568346026 8.353229289521652 0.014409322771052743 0 0 0
37 1 1.3333087849544343 6.81152715050828 1.358415292028463 0 0 0
42 1 5.473548382234368 8.318288838569378 2.522110337915481 0 0 0
44 1 8.584551012518157 8.170426374133719 0.008552690142054337 0 0 0
45 1 6.866416713731769 6.8815299532260354 1.331970016120624 0 0 0
50 1 10.865862230063335 8.301715516662474 2.6957961348610313 0 0 0
53 1 12.323964172089855 6.6923691796987255 1.398085413427161 0 0 0
52 1 13.625619861561214 8.088875583937657 21.71752684639013 0 0 -1
58 1 16.464821394549936 8.01555671504866 2.7506344658618267 0 0 0
61 1 17.68747335739373 6.807956117766984 1.221498908697487 0 0 0
60 1 19.132390781470995 8.273302939048454 0.05901143358889642 0 0 0
65 1 0.03612845228899094 10.904980536594303 0.0349264711397311 0 0 0
67 1 2.453881896723105 10.944981605085479 2.595828801108937 0 0 0
69 1 1.2952171336111493 12.34676680804438 1.3996964538880357 0 0 0
40 1 3.868734308627791 9.60947742447384 1.3382014488547171 0 0 0
73 1 5.4692766824355665 10.74395381242106 0.06853988321027132 0 0 0
75 1 8.198831173201565 11.097536226783715 2.6601154385777797 0 0 0
77 1 6.828854510327689 12.231956958584835 1.1991181901997559 0 0 0
48 1 9.633841792590893 9.70125194289577 1.3607476941205212 0 0 0
81 1 10.994062902833841 11.011420738849651 0.04565092004933048 0 0 0
85 1 12.325591234349329 12.47309896224891 1.3081375585473414 0 0 0
56 1 14.887095954570304 9.480001648525104 1.2583754384140116 0 0 0
83 1 13.411221011643228 10.676213915642487 2.6484068585453624 0 0 0
89 1 16.20918286445259 10.986330778471313 0.03513015022658663 0 0 0
93 1 17.558505334714972 12.38950730376309 1.3491804246964647 0 0 0
64 1 20.431607476460492 9.574176988763258 1.5562887257301083 0 0 0
91 1 18.910735879826465 11.015995481532512 2.792281064188427 0 0 0
66 1 21.588930893907232 13.579852407191456 2.7092807332486557 -1 0 0
68 1 2.617465446713731 13.465039179616024 21.662999868869466 0 0 -1
72 1 3.926585583333439 14.905954892644049 1.1877710537863708 0 0 0
74 1 5.23388019036918 13.555922472950309 2.5533298053143896 0 0 0
76 1 8.090985657311606 13.661792575105801 21.741733284138277 0 0 -1
80 1 9.346069363658126 15.077573834544982 1.354359556090021 0 0 0
82 1 10.892291299214211 13.752651559251 2.744091537747382 0 0 0
84 1 13.600402670317953 13.901575134430175 0.01681327337507489 0 0 0
88 1 15.194577377058742 15.008495356314262 1.3997617871424821 0 0 0
90 1 16.383651351722513 13.459510342362941 2.7837470159947952 0 0 0
92 1 18.96041467256201 13.665706178927795 21.729501093815767 0 0 -1
96 1 20.25575084699007 15.066716756155266 1.3834340917685726 0 0 0
97 1 21.688598222727165 16.29720692320719 0.007852084464778785 -1 0 0
99 1 2.6796539588029447 16.26277151191704 2.597992990609251 0 0 0
101 1 1.2334450314231369 17.616802431291607 1.3487447099605148 0 0 0
105 1 5.254036024670777 16.194200237535092 21.528850478451485 0 0 -1
107 1 7.986663161865299 16.327322118211136 2.749860734402186 0 0 0
109 2 6.643676963542422 17.45654931070313 1.2800913102386626 0 0 0
113 1 10.859245743185433 16.410790205913525 0.18892081901948732 0 0 0
117 1 12.282076205129803 17.645158518140448 1.4314931922322127 0 0 0
115 1 13.717297117702103 16.27921179945923 2.860666740830497 0 0 0
121 1 16.2909758525428 16.327944153193936 21.697433804461326 0 0 -1
125 1 17.415499456047662 17.819639606836503 1.2764988334900356 0 0 0
123 1 18.738415219704965 16.337990990307688 2.546200156254214 0 0 0
98 1 21.739705199425245 19.11600098227859 2.5747768397608457 -1 0 0
100 1 2.67318780462016 19.00251790998518 0.05441492902984637 0 0 0
104 1 4.085099620190981 20.362380185160514 1.5245571908360467 0 0 0
106 1 5.330854995229936 18.834925012721015 2.9100656242929626 0 0 0
108 1 8.088794124409336 18.75523066186411 0.12020544091585467 0 0 0
112 1 9.340956003436117 20.226655758735312 1.4429023905874627 0 0 0
114 1 10.949041221255607 19.122982610702493 2.7802902644099725 0 0 0
116 1 13.726228036445832 19.095467578008705 0.027734281097445267 0 0 0
120 1 15.003913180756978 20.522219675764962 1.3250039693352316 0 0 0
122 1 16.182184069932415 19.130803262802623 2.7298345459080866 0 0 0
124 1 19.01737146817006 19.018586581976916 0.09889933918690096 0 0 0
128 1 20.260890211218875 20.527965722269904 1.4537150938725774 0 0 0
129 1 0.046358902085029095 0.03926280060256133 5.349435297832154 0 0 0
132 1 2.765674318983005 2.7130326295961518 5.469129685551273 0 0 0
7 1 4.301448322375776 1.4035079139764437 4.0981925442163245 0 0 0
137 1 5.451235134819684 21.7027900758951 5.541120358870275 0 -1 0
140 1 8.262928561345488 2.636825815243091 5.582585371378403 0 0 0
15 1 9.52576240030529 1.253918027964036 3.986339238695219 0 0 0
145 1 10.889382862760808 0.12161502540728418 5.55064023130515 0 0 0
23 1 14.96329612899834 1.4865153943562157 4.062007131310795 0 0 0
148 1 13.55545203862337 2.8938756773905037 5.530040837919939 0 0 0
153 1 16.405408812025644 21.73364764497189 5.516530210482578 0 -1 0
31 1 20.337757188072818 1.6215889264495662 4.08658155335046 0 0 0
156 1 18.945484584415414 2.821356613121115 5.56604997217141 0 0 0
6 1 1.3240839312705355 4.147679314388704 4.06549947703572 0 0 0
161 1 21.60939196889513 5.306780808093624 5.513725548983245 -1 0 0
169 1 5.540152966432022 5.434673570156299 5.2709127655590695 0 0 0
14 1 7.0487986004364895 4.095256278845749 4.132933518564705 0 0 0
22 1 12.00651051166798 4.231114374144999 4.155692427070348 0 0 0
177 1 10.5126065281568 5.7020461794847055 5.4856868582846525 0 0 0
30 1 17.587310760241916 4.101534913509697 3.967477733563967 0 0 0
185 1 16.36288073174221 5.461942437988625 5.4211581332965295 0 0 0
164 1 2.659669330626271 8.159928386030836 5.293835892230048 0 0 0
39 1 4.028837773705943 6.810796367931216 3.9588565692058912 0 0 0
172 1 8.173749175888158 8.259828952699136 5.13988913181944 0 0 0
47 1 9.355306818113908 6.89937765677047 3.8178873979832035 0 0 0
55 2 15.006361590668066 6.772332942103499 4.1660583066954775 0 0 0
180 1 13.416086134070984 8.086748414388362 5.436372695329571 0 0 0
63 1 20.289117428593563 6.655935985769291 4.110106711644575 0 0 0
188 1 18.978945846932376 8.076288204868135 5.555009914633765 0 0 0
38 1 1.0829956530173657 9.44835655887064 4.009378158926469 0 0 0
193 1 21.677061861673423 10.953104008532499 5.388360778559344 -1 0 0
71 1 3.8514511837589205 12.209269858804342 3.8878488613282323 0 0 0
201 1 5.360311789047248 10.980937373036785 5.342960236077152 0 0 0
46 1 6.622573156259619 9.68412209090119 3.9852191232584295 0 0 0
54 1 12.20537710622498 9.459977493833692 4.232424973262716 0 0 0
79 1 9.701249308651894 12.324470063192779 4.085816231617849 0 0 0
209 2 11.014757638239214 10.945670461409067 5.626258715410957 0 0 0
87 1 14.882990734725375 12.146270900684833 4.055000177764613 0 0 0
62 1 17.732409180792924 9.455198929341178 4.178277611180881 0 0 0
217 2 16.181562891044784 10.695895343072014 5.496098653772581 0 0 0
95 1 20.337779299266636 12.387757158102632 4.242675698116152 0 0 0
70 1 1.2697521266325178 14.904948698368603 4.038947644956562 0 0 0
196 1 2.6127598872197915 13.500467327035613 5.380275466099752 0 0 0
78 1 6.605054279684874 14.745210599913943 4.048718220452722 0 0 0
204 1 8.154189483770024 13.528763753103256 5.3709144567983635 0 0 0
86 1 12.26095081639548 14.875882327028547 4.171813104762885 0 0 0
212 2 13.403814021898102 13.443268818948866 5.488568759370073 0 0 0
94 1 17.69290669464218 14.813634889047227 3.888507492787934 0 0 0
220 1 18.88874331435251 13.608431244167273 5.5535532715561455 0 0 0
225 1 0.08971688627102711 16.336019162278106 5.289545494952916 0 0 0
103 1 3.7424150656499027 17.64906778301928 4.089807105809865 0 0 0
233 1 5.274234944529679 16.262680727263394 5.364617712434501 0 0 0
111 1 9.294206870001677 17.642160712079892 3.9254401748451744 0 0 0
241 1 10.830688581638773 16.35673318004162 5.347567529111464 0 0 0
119 1 15.08113514848801 17.743775894985472 4.20237619758065 0 0 0
249 1 16.364614651684615 16.074619257052348 5.452030495092051 0 0 0
127 1 20.235187985784314 17.75646205902151 4.028562150972596 0 0 0
102 1 1.3565953281672936 20.311295630556074 3.96748931873128 0 0 0
228 1 2.5715688332532665 19.132384607757434 5.400591209901205 0 0 0
110 1 6.671417486257804 20.376274393991075 4.226913241602608 0 0 0
236 1 8.247128849370588 18.976356316805514 5.484269813386296 0 0 0
118 1 12.225173658310968 20.516866883558595 4.179949916071893 0 0 0
244 2 13.725151223109894 19.10614857685802 5.6649544456106184 0 0 0
126 1 17.60838058115627 20.322669704744396 4.245437201458009 0 0 0
252 1 18.891998988418326 18.96427126263351 5.560341034335515 0 0 0
130 1 21.722799706219455 2.781759155713378 8.25538940876045 -1 0 0
131 1 2.8761731401724004 0.12792985686168637 8.066973804780593 0 0 0
133 1 1.275641138604563 1.4527926889799874 6.864767853532315 0 0 0
138 1 5.48904624186487 2.65706134703612 8.236258872333355 0 0 0
139 1 8.26138076693962 21.75624534296482 8.181532400906361 0 -1 0
141 1 6.810083350780311 1.2252693177686622 6.902490970620734 0 0 0
146 1 10.855094284189057 2.8565296275156107 8.299219462323244 0 0 0
149 1 12.238649910629135 1.5442487767306414 6.96719838091391 0 0 0
147 1 13.660592592628571 0.09783088043994084 8.204807065622342 0 0 0
154 1 16.245570671592894 2.939935327157314 8.250030657395122 0 0 0
157 1 17.545290112254865 1.547121607158343 6.801840616808861 0 0 0
155 1 18.976214113741367 0.09457207016173104 7.990068606465487 0 0 0
163 1 2.783470160945177 5.428124672181048 8.063797581934512 0 0 0
136 1 4.259345993678295 3.9964484161598257 6.73371948011654 0 0 0
171 1 8.177684838385689 5.474011004055464 8.101408343922188 0 0 0
144 1 9.62405024191815 4.018173144644806 6.791238045213835 0 0 0
152 1 14.91833116373463 4.160719067172295 6.824601410332415 0 0 0
179 1 13.496130725215401 5.426422610961222 8.140060294147943 0 0 0
160 1 20.26651236393417 4.034298934749348 7.028292090249344 0 0 0
187 1 19.06058242121932 5.678237796655597 8.20674435710787 0 0 0
162 1 0.004846650120490126 8.262290988236716 8.008531659534016 0 0 0
165 1 1.2030261104332352 6.778746141203455 6.570909432923074 0 0 0
170 1 5.532111675799788 8.107561472333472 8.059035161984971 0 0 0
173 1 6.806320810230417 6.728199423045179 6.560368235820622 0 0 0
178 1 10.810757339796051 8.292840071438787 8.262087300957342 0 0 0
181 1 12.063799024628825 6.716597126555987 6.935098605526378 0 0 0
186 1 16.360514776948104 8.176294663192543 8.198013969935785 0 0 0
189 1 17.567697942116897 6.796847231939221 6.826905065367766 0 0 0
195 1 2.7820279081139443 10.91006857288286 8.218578182448567 0 0 0
197 1 1.3467505584792867 12.225191068860914 6.947444081872468 0 0 0
168 1 4.088905068567083 9.387993032065562 6.739553168453158 0 0 0
203 1 8.080474093532464 10.789264900745465 8.124722956868565 0 0 0
205 1 6.847946291623746 12.153360535468485 6.745917310719644 0 0 0
176 1 9.48417612093332 9.537093670841426 6.731737306713315 0 0 0
213 1 12.286551460201308 12.14314480630572 6.940331183371405 0 0 0
184 1 14.861624110401964 9.312444401021864 6.67312764970467 0 0 0
211 1 13.765559483201619 10.783483551396628 8.306850212839565 0 0 0
221 1 17.62387571480425 12.24555317192676 6.888433105086708 0 0 0
192 1 20.254558851777944 9.627934770572733 6.8070255620492714 0 0 0
219 1 18.90895607899656 10.810960152852603 8.167256221397656 0 0 0
194 1 0.009924545171043167 13.622500237931858 8.157514847946993 0 0 0
200 1 3.9907614704941503 14.863224153256187 6.795430670403237 0 0 0
202 1 5.493266583096903 13.575847212607597 8.080772956215213 0 0 0
208 1 9.575842468308025 14.917015007487333 6.777826404181188 0 0 0
210 1 10.893893072640658 13.497800279554287 8.27167390079608 0 0 0
216 1 14.730433083902424 14.885032453663305 6.878720969531326 0 0 0
218 1 16.34728683731479 13.703934069128106 8.208853933354728 0 0 0
224 1 20.4641585029513 15.095322373574259 6.703968817995559 0 0 0
227 2 2.9082575455146116 16.436485895972936 8.202175576890772 0 0 0
229 1 1.2760040205282432 17.71637008064544 6.771091191211231 0 0 0
235 1 8.140839948500826 16.318393719467384 8.062976641781344 0 0 0
237 1 6.655612022182313 17.691376097117317 6.7348277588006615 0 0 0
245 1 12.132123382104941 17.684724727877125 6.8296951071772165 0 0 0
243 2 13.515884542606871 16.34577082259465 8.190176762165468 0 0 0
253 1 17.586575689713882 17.59576296301065 7.007788461507021 0 0 0
251 1 19.24290764955574 16.55883167679428 8.288324368268992 0 0 0
226 1 21.748385492832398 19.148494068466164 8.057896460672945 -1 0 0
232 1 3.9765892312100477 20.371373104223785 6.687165876945879 0 0 0
234 1 5.261168458342586 19.113742184943277 8.112621205361508 0 0 0
240 1 9.626137401170611 20.432281021902604 6.875356865264742 0 0 0
242 1 10.816470234078961 19.00109525549401 8.330327400708562 0 0 0
248 1 14.994591682732695 20.545741488059672 6.92912915620237 0 0 0
250 1 16.15946992158508 18.93274974793839 8.14238217851699 0 0 0
256 1 20.34295196053702 20.48737087449917 6.7959633355865625 0 0 0
257 1 0.06473391965833286 0.055719163779430286 10.705804036348168 0 0 0
260 1 2.7741580810486886 2.7036029435143467 10.86084990447805 0 0 0
261 1 1.3571719766068502 1.2867240583606132 12.145343331936544 0 0 0
135 1 4.184601579695644 1.1440501638137412 9.725503072033122 0 0 0
265 1 5.597987330379868 21.559054096061143 10.916381394969793 0 -1 0
268 1 8.119549458337742 2.679785853224534 10.850799540568852 0 0 0
269 1 6.788628910876612 1.2840870247364906 12.140691728983484 0 0 0
143 1 9.520423133631576 1.3273873515396646 9.573599644209311 0 0 0
273 1 10.875217664901022 21.720025623710015 11.000656691454912 0 -1 0
277 1 12.125444667058359 1.3615924598794582 12.39242982088375 0 0 0
151 1 14.776301186348862 1.5646423152612428 9.63031659369289 0 0 0
276 1 13.427801567867245 2.7814053001758454 11.021727151730527 0 0 0
281 1 16.222142974526438 0.23341953057800807 10.808877494591323 0 0 0
285 1 17.765738076089722 1.5281628057780723 12.247452593438299 0 0 0
159 1 20.273399319940903 1.5154212063514148 9.521868047084023 0 0 0
284 1 19.155627893651204 3.019673640539493 10.856028633501396 0 0 0
134 1 1.2744592582840624 4.28721297514552 9.602053135647065 0 0 0
289 1 0.011591921824985012 5.61222938588897 10.839790396794333 0 0 0
264 1 4.461586485136475 3.911643779303179 12.016957139440159 0 0 0
297 1 5.577058462006233 5.365826258790765 10.7474091256968 0 0 0
142 1 6.88224516135271 4.033952362104657 9.421127779568572 0 0 0
150 1 12.10321535823871 4.144204424082431 9.642120472008504 0 0 0
272 1 9.413504951799052 4.14515544406106 12.231229997064508 0 0 0
305 1 10.86097639684513 5.500331179557689 11.110463656487145 0 0 0
280 1 14.990396648930002 3.935939822540246 12.242997010866699 0 0 0
158 1 17.665595500624974 4.331432800273197 9.596033765644457 0 0 0
313 1 16.182612724175517 5.558807865294028 10.934052197507294 0 0 0
288 1 20.554342809731942 4.354187383355967 12.245828668096449 0 0 0
292 1 2.7292632395590264 8.008017448380386 10.725501594396274 0 0 0
293 1 1.5508214125973059 6.767276866361665 12.214032126766858 0 0 0
167 1 4.270079678352336 6.754091310870382 9.513029248820335 0 0 0
300 1 8.08239294178276 8.098944899166138 10.814718442618435 0 0 0
301 1 6.72523240428726 6.788789127967275 12.244395574385605 0 0 0
175 1 9.589716366293988 6.817146265595421 9.49282100621913 0 0 0
309 1 12.251396458311643 6.730865650674582 12.43123385568705 0 0 0
183 1 14.950865132710776 6.770210767137987 9.350552350207742 0 0 0
308 1 13.68723863140851 8.105688091786897 10.910400635957018 0 0 0
317 1 17.830446881142166 6.952256084900867 12.234347407786041 0 0 0
191 2 20.51566770860773 6.89380374201795 9.577954444521055 0 0 0
316 1 19.18067740506792 8.241555604262654 10.92349840922256 0 0 0
166 1 1.3290782395405478 9.491734672085755 9.429670216744722 0 0 0
321 1 0.053729842829453096 10.807889694031742 10.909720927391302 0 0 0
325 1 1.4016782812145374 12.273719073000589 12.19805163722483 0 0 0
199 1 4.215933372295967 12.238845564730997 9.49452978565511 0 0 0
296 1 4.045929462660608 9.408648960308502 12.104469490286775 0 0 0
329 1 5.451099492635188 10.84906028685209 10.85248479076958 0 0 0
174 1 6.750225611974938 9.421921005828548 9.466471204061493 0 0 0
333 1 6.664030984576087 12.273451423264751 12.259168639124404 0 0 0
182 1 12.269323146433301 9.606284720783956 9.681556943684464 0 0 0
207 1 9.376547121117257 12.213749192387283 9.625688623198075 0 0 0
304 1 9.217121492776888 9.510445364081258 12.243322734563748 0 0 0
337 1 10.725069409250288 10.893055459415754 11.020097836325272 0 0 0
341 1 12.166662529218158 12.221373493735985 12.303302140844337 0 0 0
215 1 15.094793934150788 12.281299121930564 9.559236781578235 0 0 0
312 1 14.928778744841352 9.642261267827637 12.164388176000747 0 0 0
190 1 17.66499556024564 9.5062146436815 9.688506652773532 0 0 0
345 1 16.49858264877885 10.967900147066672 10.89641183115606 0 0 0
349 2 17.645335645329972 12.36566571035304 12.241741547950793 0 0 0
223 1 20.393362251290583 12.15781086032024 9.486611916045494 0 0 0
320 1 20.567595161055117 9.437474892287714 12.178855148556096 0 0 0
198 1 1.371082694024996 14.865943264825182 9.488728904636874 0 0 0
324 1 2.8558525139394697 13.533239251038097 10.847178414675302 0 0 0
328 1 3.9346437187909 14.965048792555695 12.232773095813434 0 0 0
206 1 6.740819401015944 15.10343310741319 9.503091517121186 0 0 0
332 1 7.997940221140141 13.64511259133317 10.984049779246728 0 0 0
214 1 12.071861290332645 15.046056749323041 9.49251282500533 0 0 0
336 1 9.495348739028193 15.035745562585289 12.253929775851782 0 0 0
340 1 13.489551045076082 13.600265979100538 10.891730305033882 0 0 0
344 1 14.931132132184805 15.024744642444936 12.210616352382331 0 0 0
222 1 17.716223780981547 15.115301431684625 9.57028606605214 0 0 0
348 1 19.054803487468405 13.736890154116281 10.941108032969401 0 0 0
352 1 20.542399532443696 15.021066049665484 12.299997323211198 0 0 0
353 1 0.11365295366225299 16.365290393259084 10.91430179065711 0 0 0
357 1 1.4953797017695796 17.65199205477592 12.308411004514463 0 0 0
231 1 4.2959744563032904 17.531253779769973 9.597084420408391 0 0 0
361 2 5.443454639698805 16.301964346392626 11.06838439631531 0 0 0
365 1 6.6889103858303125 17.712089849373562 12.367925883893722 0 0 0
239 1 9.351904459408354 17.69574947358165 9.544779572338571 0 0 0
369 1 10.862323422017326 16.355499693900928 10.872818272051445 0 0 0
373 1 12.290687207144599 17.6645212238132 12.209779397245159 0 0 0
247 1 14.820029935301505 17.659914531557934 9.437894172299679 0 0 0
377 1 16.30849647048003 16.466125484993054 10.876941378851704 0 0 0
381 1 17.840248629463115 17.74744067374721 12.15356923014703 0 0 0
255 1 20.737810533963675 17.900835155041648 9.633828226040277 0 0 0
230 1 1.5289105186005263 20.312263729924634 9.338994362075379 0 0 0
356 2 2.808321586150756 18.96719652449806 10.88877121988703 0 0 0
360 1 3.9932778825267157 20.37790925584368 12.313253473318625 0 0 0
238 1 6.830334990662564 20.341271776912997 9.372914225320478 0 0 0
364 1 7.920022543393469 18.88972461669908 10.842260821548711 0 0 0
246 1 12.308971681280871 20.45914308156232 9.486997137005917 0 0 0
368 1 9.408517102349217 20.366140867819237 12.037938703517474 0 0 0
372 1 13.592096928768925 18.96409398304441 10.805492672479394 0 0 0
376 1 14.956738809051872 20.414811921259638 12.232901158984973 0 0 0
254 1 17.575147008024196 20.46919005214159 9.51698104587443 0 0 0
380 1 19.173344282009 19.239229915475242 10.844317052331629 0 0 0
384 1 20.674632278595112 20.46811248760545 12.251925195414906 0 0 0
258 1 0.12983877332388308 2.6211325381323216 13.49657048124362 0 0 0
259 1 2.7194533697769336 0.05850720510800403 13.630560544882755 0 0 0
263 1 4.341340564472913 1.423868931885751 15.01982224270516 0 0 0
266 1 5.618276597035345 2.550228031270409 13.583466395600377 0 0 0
267 1 8.072554613957289 21.65375474119279 13.470925657979684 0 -1 0
271 1 9.48662155980019 1.2375168620946895 14.80608412647011 0 0 0
274 1 10.697412588289582 2.7000883091488634 13.524467324128668 0 0 0
275 1 13.710516578919584 21.68855344243998 13.745698887426494 0 -1 0
279 1 15.093089423047095 1.3020482256029322 15.067553550523677 0 0 0
282 1 16.421875315040175 2.730150147306045 13.67104720626754 0 0 0
283 1 19.129479483479287 21.755964313238167 13.52661961578929 0 -1 0
287 2 20.523724565449232 1.2898373472369535 15.136497655427233 0 0 0
262 1 1.4961297561439748 3.9272697192380246 14.780571444118422 0 0 0
291 1 2.9770871372148484 5.191931701122599 13.493712797316563 0 0 0
270 1 6.890997288637126 3.911902046823759 14.99802330095227 0 0 0
299 1 8.02867187872212 5.37536812874286 13.597472267406456 0 0 0
278 1 12.098570924488318 3.8627947509999943 15.038865231110437 0 0 0
307 1 13.58619300719442 5.225130457451473 13.645305392730267 0 0 0
286 1 17.665458362238716 4.075341645998571 14.947379612117679 0 0 0
315 1 19.098464089901167 5.648515442598209 13.596027469026257 0 0 0
290 1 0.1985230016731108 8.025776808546885 13.505813891934283 0 0 0
295 1 4.101112125631255 6.614575680676943 14.92781530886664 0 0 0
298 1 5.3617573797058835 8.08009892999457 13.641832371937213 0 0 0
303 1 9.682740707617384 6.707125659565535 14.767267595835225 0 0 0
306 1 10.807552022462698 8.387197915781792 13.544917750274266 0 0 0
311 1 14.799450325032371 6.74209248548645 15.00787019449611 0 0 0
314 1 16.188893460708258 8.163119605031419 13.692407792038777 0 0 0
319 1 20.66282551756516 6.807410728100109 15.033937184257523 0 0 0
294 1 1.4030496059944084 9.497280574961886 14.89886348147538 0 0 0
323 1 2.691873321448839 10.82068242391575 13.579077370578025 0 0 0
327 1 4.144341061923864 12.125992803223678 14.837524599301426 0 0 0
302 1 6.724282991896193 9.34065724696673 14.78902260350131 0 0 0
331 1 8.16067385387983 11.041199586003918 13.576976396034935 0 0 0
310 1 12.09950706142186 9.748037355346677 14.908471330670242 0 0 0
335 1 9.583483940034185 12.37039290323779 14.767758831923617 0 0 0
339 1 13.787587799690604 11.006568314358134 13.541718460927642 0 0 0
343 1 15.185916719185473 12.276011803848597 14.820248776393314 0 0 0
318 1 17.731601724694258 9.38749247459413 14.918177604992502 0 0 0
347 1 19.03324652506789 10.816777150650744 13.50477019300187 0 0 0
351 2 20.23002614613747 12.214217297653114 14.94785938636045 0 0 0
322 1 0.07896339458308149 13.556403501914287 13.549798311493129 0 0 0
326 1 1.4130357270267548 14.920236843742378 14.927881876239157 0 0 0
330 1 5.382984346787515 13.699990102242873 13.544216033178442 0 0 0
334 1 6.8385935672309 14.933663525619089 14.971828061165446 0 0 0
338 1 10.947765461491562 13.807553597098249 13.610627835058752 0 0 0
342 1 12.29614461763355 14.893688885819028 15.008455286951198 0 0 0
346 2 16.416465537396647 13.776089372763051 13.552366440801968 0 0 0
350 1 17.797891930156037 15.00743997739141 14.982731897722267 0 0 0
355 2 2.7695314128832496 16.327204190248914 13.780976886182229 0 0 0
359 1 4.149204311628306 17.46770372682908 15.186788079483623 0 0 0
363 2 8.14145303134847 16.3469237595677 13.599901994605512 0 0 0
367 1 9.466504254795021 17.764570545720623 15.070845898732268 0 0 0
371 1 13.501738757236755 16.3401490565914 13.6027594166354 0 0 0
375 1 14.928612032439345 17.631296699779448 14.881889325567084 0 0 0
379 1 19.184772759168496 16.420479192712754 13.537378341447512 0 0 0
383 1 20.56860523302774 17.667663603414066 14.936694517718609 0 0 0
354 1 0.1968444793598232 19.059921922434093 13.688906136267946 0 0 0
358 1 1.569883584716906 20.340436665768365 15.07154875542687 0 0 0
362 1 5.3578141513948 19.046077675830755 13.739135744824951 0 0 0
366 1 6.6785070750475 20.342954814431767 15.107704340331628 0 0 0
370 1 10.804941598188753 19.057183431526468 13.595003144023107 0 0 0
374 1 12.21230617714117 20.353661677750225 14.97995524428127 0 0 0
378 1 16.366865328788492 19.01875003094265 13.433515541023212 0 0 0
382 1 17.755562132764084 20.247879741963903 14.908758823299122 0 0 0
385 1 0.22090200268001858 21.601824566540653 16.427441176634066 0 -1 0
388 1 2.781805624694174 2.6844791577063614 16.34874621545812 0 0 0
389 1 1.3676565372748684 1.3938109130372964 17.733513632108124 0 0 0
393 1 5.406334334228409 0.03890977640940032 16.370526806862348 0 0 0
396 1 8.324026281438107 2.75332270252419 16.41816108460917 0 0 0
397 1 6.86369485819627 1.3000468325898469 17.685053856404856 0 0 0
401 1 10.776018526139277 21.57719087071383 16.327371458323046 0 -1 0
405 1 12.232763106965697 1.114200816260457 17.64172691097021 0 0 0
404 1 13.655087646159526 2.5927748916722493 16.499037321374367 0 0 0
409 1 16.55538319806781 21.54462851987645 16.370695542970566 0 -1 0
413 1 17.76682089244517 1.2129455738157853 17.716006196137926 0 0 0
412 1 19.015489195929053 2.5719450096506975 16.38502020866364 0 0 0
417 1 0.21023805562792913 5.354201940751182 16.237054832375247 0 0 0
392 1 4.064075612348563 4.152461355642521 17.696849345450556 0 0 0
425 1 5.515692725781194 5.27719325724689 16.234894899947122 0 0 0
400 2 9.711573667396085 4.071309150254536 17.83865536460218 0 0 0
433 1 10.853844312979366 5.339962751866054 16.32510928802621 0 0 0
408 2 15.075004650747028 3.85061307570912 17.767620100378693 0 0 0
441 1 16.336315818001623 5.349069125584629 16.34290694764656 0 0 0
416 1 20.351449971058827 4.083960350758981 17.601117927675038 0 0 0
420 1 2.930193824924812 8.084058139762213 16.354483628370925 0 0 0
421 1 1.3911695392432657 6.776797244686358 17.613930282209523 0 0 0
428 1 8.13606605741923 8.080759487104638 16.142925749921694 0 0 0
429 1 6.937558068463784 6.656989182675636 17.69832420413435 0 0 0
437 1 12.245575438175848 6.784460189500561 17.529546880093516 0 0 0
436 1 13.424720148708595 8.343932836666902 16.22587175207714 0 0 0
445 1 17.61989330051415 6.772492673109282 17.65847599056047 0 0 0
444 1 19.066961410630427 8.026221486714507 16.32457152890884 0 0 0
449 1 0.018396381141203545 10.874478059460564 16.28669409582206 0 0 0
453 1 1.2999063920269054 12.09689650949734 17.484508434421258 0 0 0
424 1 4.095760014557988 9.609601890997157 17.740132814451513 0 0 0
457 1 5.579751491294131 10.892298051712455 16.20094234567479 0 0 0
461 1 6.744011344827386 12.1058011523152 17.72419756472734 0 0 0
432 1 9.424865254524752 9.50049639058165 17.50478463766242 0 0 0
465 1 10.715731816873443 11.060850873398351 16.36213383709701 0 0 0
469 1 12.229098255213263 12.489090290595248 17.581843060180883 0 0 0
440 1 14.897035499020811 9.58383449863683 17.76619577264775 0 0 0
473 1 16.388102911158022 10.94425273786327 16.27994650933298 0 0 0
477 1 17.550400625076936 12.303540895919014 17.727071145469292 0 0 0
448 1 20.33082047004121 9.481064936309958 17.52516222995061 0 0 0
452 1 2.8279819050494917 13.60259955493748 16.179023510556746 0 0 0
456 1 4.180647724477024 14.943032757487597 17.66201899301532 0 0 0
460 1 8.160334009416415 13.68888632851677 16.38325761474436 0 0 0
464 1 9.560829577769391 15.05272212668348 17.68185543628072 0 0 0
468 1 13.837395136179753 13.56025342820849 16.195769642869966 0 0 0
472 1 15.132733876776605 15.075666579330655 17.645611428308836 0 0 0
476 1 18.925254409212375 13.58052879030295 16.391294012565183 0 0 0
480 1 20.362336048279943 14.815265958907167 17.790076923723078 0 0 0
481 1 21.706329387284914 16.34534133682395 16.394703717220153 -1 0 0
485 1 1.2889446765491064 17.740485991741085 17.54826995605733 0 0 0
489 1 5.651781972087036 16.275500833642415 16.44215847510708 0 0 0
493 1 6.888070318257363 17.6520433470418 17.74835393017147 0 0 0
497 1 10.917631020934698 16.387202389183553 16.31517713430633 0 0 0
501 1 12.21290480290157 17.654628911107743 17.692804027684303 0 0 0
505 1 16.47802568296161 16.41550027486054 16.136181685585715 0 0 0
509 1 17.694902504615996 17.539990975440386 17.63780798477266 0 0 0
484 1 2.891684243905454 19.02209976101814 16.448906213074054 0 0 0
488 1 4.09750604021658 20.383050874898622 17.740771224273193 0 0 0