LAMMPS data file via write_data, version 29 Aug 2024, timestep = 10000000, units = metal

512 atoms
2 atom types

0 21.77481 xlo xhi
0 21.77481 ylo yhi
0 21.77481 zlo zhi

Masses

1 28.0855
2 12.011

Atoms # atomic

1 1 21.721083284882024 21.747846155449693 21.74631283462708 -1 -1 -1
2 1 21.710642842344352 2.6800851582423015 2.692873936817968 -1 0 0
3 1 2.6881251113910656 21.71281009874462 2.74681787569993 0 -1 0
4 1 2.8834412859813163 2.64542389241167 0.007880009891113716 0 0 0
5 1 1.4268709600786798 1.1420714759020887 1.3405149760827109 0 0 0
9 1 5.626385151228258 0.1599309424279102 0.013691013752387446 0 0 0
10 1 5.395600275273652 2.8732209345003916 2.5840378774965993 0 0 0
11 1 8.173216289558873 21.72312241121132 2.7768328572698717 0 -1 0
12 1 8.390422350839422 2.7420032739004463 0.08185370741762855 0 0 0
13 1 6.991478774868802 1.347171566129323 1.2950797235012104 0 0 0
17 1 10.906643046977834 21.664872463810017 0.17229626080520719 0 -1 0
18 1 10.732579216012134 2.686529479099953 2.6577694431000176 0 0 0
21 1 12.20961374403697 1.4041545514018765 1.377218554393769 0 0 0
19 1 13.491426954035747 0.04147338798710272 2.963928390764682 0 0 0
20 1 13.650489576700878 2.9036721795165037 0.11652528672314749 0 0 0
25 1 16.263788685341066 0.14915874345633628 21.66186552426082 0 0 -1
26 1 16.268382518109544 2.6869979024497166 2.8099243286770728 0 0 0
29 1 17.555455729068836 1.3842863109335428 1.3707050143634254 0 0 0
27 1 19.093655194834664 0.05806627634479131 2.8543088937811025 0 0 0
28 1 18.90470900063769 2.685210985807827 21.699622495825327 0 0 -1
33 1 21.603406836563607 5.1551044301179 0.19105513197664672 -1 0 0
35 1 2.8948966306554995 5.504189789929809 2.7635860943176866 0 0 0
8 1 4.180957853334125 4.183077483472944 1.2824454442841455 0 0 0
41 1 5.524887245547063 5.704351171237357 21.6412908079425 0 0 -1
43 1 8.264661709205626 5.558269952597421 2.7212161988834223 0 0 0
16 1 9.471264182981928 4.23374219951135 1.4104845992227095 0 0 0
49 1 10.901801346017189 5.5853246738982865 0.10671747059013234 0 0 0
24 1 15.123082353366554 4.249499503596711 1.3139159197746486 0 0 0
51 1 13.601295653346147 5.409313959758946 2.7360550601323257 0 0 0
57 1 16.493337890527645 5.365763384475662 21.708400798465192 0 0 -1
32 1 20.230308395250876 3.7905722005365527 1.4569424743150585 0 0 0
59 1 19.088383297169077 5.390347417597089 2.658263153919772 0 0 0
34 1 21.660691227092634 8.106147733184784 2.5999023887923958 -1 0 0
36 1 2.576712057363934 8.122910293579073 0.2941346219009279 0 0 0
37 1 1.2557114447608388 6.749441456305939 1.4883554837129256 0 0 0
42 1 5.432795737958678 8.111364602703631 2.783546154484281 0 0 0
44 1 8.248647757293885 8.26208257409039 0.045874884593902134 0 0 0
45 1 6.920019183273524 6.793473757768032 1.3949371516299813 0 0 0
50 1 10.944638977800242 8.28590309504595 2.7166115706125997 0 0 0
53 1 12.41362564691397 6.893750999570756 1.4150192994870057 0 0 0
52 1 13.735012944245462 8.155711559869408 21.710069690282403 0 0 -1
58 1 16.456182607400432 8.114225016632123 2.66618705256994 0 0 0
61 1 17.742954933831086 6.690688461684289 1.4661264025568967 0 0 0
60 1 18.831863443627455 8.014571393696022 0.016491258376425972 0 0 0
65 1 21.765702166730915 10.76883043727026 21.747537150131063 -1 0 -1
67 1 2.4314470413799993 10.885654699748823 2.8012719859308812 0 0 0
69 1 1.3164544882961693 12.358375991203873 1.2186897206407639 0 0 0
40 1 3.8130014600970505 9.412188518501761 1.5416497573141994 0 0 0
73 1 5.368071750812014 10.94681324637736 0.16040463858618442 0 0 0
75 1 8.059915576519357 10.932319729796346 2.643565445148957 0 0 0
77 1 6.604961829630328 12.509195225241042 1.5170491438350826 0 0 0
48 1 9.621137181526528 9.664869734562192 1.2803300259539823 0 0 0
81 1 11.004232352946074 11.026866913949451 21.738818342505933 0 0 -1
85 1 12.328513834899242 12.370508248593051 1.3648448199703158 0 0 0
56 1 14.917788644472077 9.59210376132623 1.5512186756474453 0 0 0
83 1 13.690914233567934 11.11150605198437 2.7442956369839853 0 0 0
89 1 16.4809641526959 10.933425018280568 0.11090363300529908 0 0 0
93 1 17.692593066681347 12.223752819375095 1.6881121076011867 0 0 0
64 1 20.273675941398032 9.463459447113966 1.2085468125490864 0 0 0
91 1 19.110151051044422 10.782110348218563 2.579747685987918 0 0 0
66 1 21.733164243271123 13.610377305315197 2.447900899923996 -1 0 0
68 1 2.6531442117297965 13.71528457451516 21.721844980237996 0 0 -1
72 1 3.9963449459306903 15.001451190659225 1.2429858977262873 0 0 0
74 1 5.033991560370213 13.469721303542947 2.723773606346677 0 0 0
76 1 8.101508095366754 13.58781330460753 0.1465967557373861 0 0 0
80 1 9.292983859747636 14.951951490242301 1.620311063862273 0 0 0
82 1 10.958605427038632 13.58945037063145 2.5725219192176767 0 0 0
84 1 13.595736359318568 13.75500121195976 0.01830211574121121 0 0 0
88 1 14.821449480984604 14.981024813979715 1.622863110974632 0 0 0
90 1 16.4112662762953 13.659714808509198 2.8967780075285345 0 0 0
92 1 19.09679783897136 13.480774890745703 0.10713622215364368 0 0 0
96 1 20.244832432092426 15.144090775787785 1.3863692883606487 0 0 0
97 1 21.530629402187152 16.404475003958346 21.734362521360843 -1 0 -1
99 1 2.592704088870915 16.361954861393023 2.4331001314527803 0 0 0
101 1 1.2631264476622708 17.773487550716 1.1243287974522693 0 0 0
105 1 5.257952737531132 16.48180400091883 21.76344224300455 0 0 -1
107 1 8.293655101819471 16.297576705108526 2.9375943915924987 0 0 0
109 1 6.862667827348475 17.551168493066317 1.3650975506128507 0 0 0
113 1 10.939710922395198 16.090648654226747 0.0945905632929962 0 0 0
117 1 12.26729135369748 17.82040799165916 1.3539117321351957 0 0 0
115 1 13.572503963581134 16.411211262794524 2.839417393427703 0 0 0
121 1 16.05521134422219 16.289139413418084 0.012480991162652005 0 0 0
125 1 17.543584979949685 17.58962873140357 1.5468962016823136 0 0 0
123 1 19.000050152791434 16.36202630183856 2.9282151643139267 0 0 0
98 1 0.0857318722268697 18.852233939810997 2.737712191726102 0 0 0
100 1 2.7548295357608517 19.112280623709452 21.546310689493843 0 0 -1
104 1 4.000977182515906 20.450314928937804 1.1408706133145816 0 0 0
106 1 5.479383554818667 19.018301840187586 2.6645618500281336 0 0 0
108 1 8.19716995588194 18.843284139896305 0.015399650175879732 0 0 0
112 1 9.58594761202157 20.349912667755188 1.4736102595408287 0 0 0
114 1 10.91224953995952 19.03996784736439 2.7409204220281813 0 0 0
116 1 13.532463327146937 19.17688980298009 21.663743637915758 0 0 -1
120 1 14.790509594444421 20.63816072138835 1.3168418933249046 0 0 0
122 1 16.24552935523087 19.076651523451808 2.7762149033106933 0 0 0
124 1 19.063944864300208 19.0613267023223 0.33642283966920744 0 0 0
128 1 20.63997462896201 20.35892426296245 1.4849375881844533 0 0 0
129 1 0.08836054174251612 21.47193704659505 5.342022344056895 0 -1 0
132 1 2.9265498998475374 2.603253552899528 5.438199613268383 0 0 0
7 1 4.153491269995683 1.3357511433687752 3.911870628852465 0 0 0
137 1 5.276332404178375 0.05030826691875299 5.437742762079032 0 0 0
140 1 7.973482480101897 2.859762512848371 5.467646605656822 0 0 0
15 1 9.331244559295445 1.2908382804325882 4.25708184603726 0 0 0
145 1 10.70066447193418 0.07111041927605215 5.5108710267330805 0 0 0
23 1 15.051499685378893 1.1810448923689039 4.289935693734834 0 0 0
148 1 13.738811148970372 2.5414641179718713 5.507325570141549 0 0 0
153 1 16.317756100815885 21.59400163474454 5.620302389514752 0 -1 0
31 1 20.425086859942226 1.318416253473505 4.155590235118672 0 0 0
156 1 18.790904480462647 2.5979174809604224 5.494468724976176 0 0 0
6 1 1.5603540427282565 4.133986934301099 3.948225895389225 0 0 0
161 1 0.11760313673239724 5.44745900535728 5.093343441234967 0 0 0
169 1 5.580778096816782 5.59041312719967 5.446940837329117 0 0 0
14 1 6.800545922005127 4.248430661633474 3.8385358982634754 0 0 0
22 1 12.243272898634885 3.850541248659426 4.004272652332722 0 0 0
177 1 10.855973884080106 5.269992353346793 5.312877551906872 0 0 0
30 1 17.516571053653724 4.110292154196271 4.165153321016619 0 0 0
185 1 16.276475360386264 5.385842175353815 5.585687757094465 0 0 0
164 1 2.77257842683488 8.18474628871554 5.64040399678121 0 0 0
39 1 4.157576017085832 6.887546130421125 4.230949036787429 0 0 0
172 1 8.373803906246964 8.326637429613841 5.397174705154371 0 0 0
47 1 9.704059580379742 6.8534434539927656 4.128106381650423 0 0 0
55 1 14.96436868151265 6.777440727942907 4.126367553449862 0 0 0
180 1 13.389302995388908 8.110552110980388 5.290871621078106 0 0 0
63 1 20.49494624753289 6.628117955255618 3.7964974366259976 0 0 0
188 1 19.308216751826187 7.857709967632278 5.365904991841587 0 0 0
38 1 1.1734970205793431 9.26500212471992 4.205199339642639 0 0 0
193 1 21.592452725349602 10.928429375004153 5.565942602289867 -1 0 0
71 1 3.7894193349626306 12.214338198875723 4.180667628458442 0 0 0
201 1 5.552182332195391 10.990782874271341 5.350509678687687 0 0 0
46 1 6.726815904580418 9.58829955220186 4.0098577924438 0 0 0
54 1 12.243663010371156 9.61643423051448 3.9883619152276593 0 0 0
79 1 9.45846858728168 12.183492056874115 3.984691187379317 0 0 0
209 2 10.840604987293316 10.95721465869775 5.330841399586147 0 0 0
87 1 15.019144165028628 12.362259365697499 4.228294803343115 0 0 0
62 1 17.746697139726223 9.587826912026989 3.835370221652827 0 0 0
217 1 16.270469219462797 10.796833119137647 5.4602886365955445 0 0 0
95 1 20.454979954088625 12.213497362246924 3.9747516517572716 0 0 0
70 1 1.0778896247580048 15.023668410495922 3.8145410102000135 0 0 0
196 1 2.576919731654538 13.73790971391332 5.318969414833436 0 0 0
78 1 6.580115509130496 14.984404637353034 3.9576361260236332 0 0 0
204 1 8.051294805453118 13.674995929528395 5.212365926416274 0 0 0
86 1 12.516475986461003 14.85222369181933 3.8489629777578807 0 0 0
212 1 13.55392365296094 13.545724151451482 5.576221250001075 0 0 0
94 1 17.73846573679577 14.905181820835617 4.188480072788453 0 0 0
220 1 19.02320308039162 13.50527496522039 5.352983010818401 0 0 0
225 1 21.60382555344481 16.324967360537148 5.431450274742744 -1 0 0
103 1 4.0643846364305 17.50687407999028 3.891413896651322 0 0 0
233 1 5.376886741351731 16.198777794580355 5.333281978112387 0 0 0
111 1 9.461115888082656 17.87691211345 4.2716367887367435 0 0 0
241 1 10.882497793187348 16.38502341103756 5.233138008760189 0 0 0
119 1 15.002146069736314 17.8217791156946 4.2286419625429374 0 0 0
249 1 16.269760312188353 16.103783393669424 5.407792650745677 0 0 0
127 1 20.24129109086902 17.713881595767177 4.187579157567935 0 0 0
102 1 1.43436326408896 20.223808262072307 4.080681185192206 0 0 0
228 1 2.696428367529792 18.946152148743465 5.40214436185844 0 0 0
110 1 6.630640201811914 20.40130252200561 4.116598655956975 0 0 0
236 1 8.13302361429707 19.092750170425496 5.546537958875081 0 0 0
118 1 12.138626199107632 20.393332585019767 4.1886733574303685 0 0 0
244 1 13.408393829704629 19.06743193928109 5.431078533580946 0 0 0
126 1 17.7287935496954 20.255457889986186 4.201451838529517 0 0 0
252 1 18.83541821437652 18.85639381262357 5.768601766256826 0 0 0
130 1 0.09471646923203847 2.8084614010821913 7.9836624893344865 0 0 0
131 1 2.8119261255904964 0.09113615089672016 8.12308214557826 0 0 0
133 1 1.3854791187299733 1.2799352922796061 6.680143756323964 0 0 0
138 1 5.594444380384078 2.8994891346589533 8.000962285555861 0 0 0
139 1 8.305045016700525 0.05458788833783215 8.358015955337468 0 0 0
141 1 6.756524756077434 1.2671311681385753 6.780172838482852 0 0 0
146 1 10.831540546116818 2.599062182265719 8.092236198700272 0 0 0
149 1 12.295086585332974 1.2698835778217012 6.945567174110068 0 0 0
147 1 13.669984375140952 21.75799727348807 8.43970036975884 0 -1 0
154 1 16.402926943196643 2.7476664470130783 8.453186020073918 0 0 0
157 1 17.52226596645162 1.3368756712269623 7.066538044798866 0 0 0
155 1 19.206375105387657 21.61569039510477 8.131203424963164 0 -1 0
163 1 2.815734647097567 5.412418720071461 8.225254600646805 0 0 0
136 1 4.197145684147037 4.191550638474484 6.770606979110234 0 0 0
171 1 8.271472270823171 5.482348121324591 8.177373863722282 0 0 0
144 1 9.636084009105295 3.958454565478838 6.775483532840738 0 0 0
152 1 14.84213405769485 4.116234357176417 7.017930076539377 0 0 0
179 1 13.437589998205162 5.54318899326576 8.292074097862223 0 0 0
160 1 20.45432291456466 4.055599487870313 6.449799129299767 0 0 0
187 1 19.28538470677101 5.410803997043939 8.227548439718804 0 0 0
162 1 0.1901361696071154 8.158094819524818 8.121748475599418 0 0 0
165 1 1.3861499154098542 6.752220961027508 6.760411805054156 0 0 0
170 1 5.478003430751033 8.147064431626305 8.23682220103469 0 0 0
173 1 7.071542277396105 6.89402564216606 6.699982529250335 0 0 0
178 1 10.929628819633098 8.143919689001338 7.9730151342575155 0 0 0
181 1 12.146040337689207 6.673409969180482 6.63881290136393 0 0 0
186 1 16.305783786540793 8.158952552493519 8.20386594242673 0 0 0
189 1 17.886578586128564 6.814475460327228 6.963224947219515 0 0 0
195 1 2.876369185031198 11.058900430547775 8.198687027216723 0 0 0
197 1 1.3535740134029202 12.239349545068736 6.744323151437009 0 0 0
168 1 4.218014127857456 9.760640076471924 6.858829534035371 0 0 0
203 1 8.06291322473539 10.931734863721829 8.034182555337683 0 0 0
205 1 6.563916195412353 12.478607308155807 6.7111891798922505 0 0 0
176 1 9.641563035086506 9.752852574082613 6.832760860644189 0 0 0
213 1 12.135717800035128 12.132542468799162 6.871521860485247 0 0 0
184 1 14.887402995617903 9.411966637997812 6.696965820699926 0 0 0
211 1 13.563822189160918 10.86013770965671 8.109125234398753 0 0 0
221 1 17.560853028428436 12.27265573556352 6.949738123832547 0 0 0
192 1 20.535817547186273 9.385829314568642 6.809538260922825 0 0 0
219 1 19.018292202713894 10.778756227374533 8.202640160206995 0 0 0
194 1 0.03876691720088358 13.471191286681266 8.14140839057229 0 0 0
200 1 3.8531146731314667 14.900510545625616 6.753100197533543 0 0 0
202 1 5.403549939463048 13.843866128153715 8.318960089463873 0 0 0
208 1 9.596511990288716 15.009812957368258 6.515087397987334 0 0 0
210 1 10.76926873814873 13.587543174736412 8.088873245064134 0 0 0
216 1 14.885478085490924 14.891651895332252 6.8526142436349495 0 0 0
218 1 16.09837382250358 13.76477161179835 8.239470430405246 0 0 0
224 1 20.32981425224509 14.864530792991687 6.891467784708152 0 0 0
227 1 2.9172496256225124 16.29818693510208 8.182613335890611 0 0 0
229 1 1.3638272276768009 17.539614940845954 6.737782699567385 0 0 0
235 1 8.27681251668058 16.47862920834596 7.948133182988782 0 0 0
237 1 6.760275067624097 17.58536399474475 6.7965122284440485 0 0 0
245 1 12.242005672654567 17.66336819823056 6.735599075332233 0 0 0
243 1 13.510255161081915 16.28544520898319 8.29621780875908 0 0 0
253 1 17.440088519745792 17.44170739716465 6.737723761622203 0 0 0
251 1 18.979199439974433 16.29761243616415 8.065443943954838 0 0 0
226 1 0.04236719620276212 19.103994093085124 8.111690623339259 0 0 0
232 1 4.018670284074325 20.285774571825616 6.696708300984508 0 0 0
234 1 5.494801275748177 19.034290587378866 7.947645536228187 0 0 0
240 1 9.470340250228302 20.390187911084485 6.779739400848203 0 0 0
242 1 11.011089485529894 18.920992524944793 8.140620311136152 0 0 0
248 1 14.813208334605758 20.32724847089319 6.939150182732926 0 0 0
250 1 16.20299976470909 18.75973761429714 8.06447324977785 0 0 0
256 1 20.510905203864287 20.326750204655703 6.715158815079089 0 0 0
257 1 21.74985718285735 21.660621157501776 11.015338429588144 -1 -1 0
260 1 2.837000335879911 2.642555276534056 10.725246395716866 0 0 0
261 1 1.4815666429122467 1.5018181116009024 12.27552157329929 0 0 0
135 1 4.2571892649688285 1.4907433467416105 9.335219132055427 0 0 0
265 1 5.547325213950725 0.029023844010209597 10.686163756400692 0 0 0
268 1 8.296493921238712 2.7340706887565793 10.768008689694062 0 0 0
269 1 6.672873319014427 1.5086212573191369 12.109254815090313 0 0 0
143 1 9.648575747763623 1.3631822740899635 9.595916868290686 0 0 0
273 1 10.816501334055207 21.656822798144674 10.998264181525174 0 -1 0
277 1 12.14970257287408 1.3998170782848012 12.27042353990624 0 0 0
151 1 14.917280798505281 1.432598300571472 9.794376078227891 0 0 0
276 1 13.455280318471994 2.912091222865627 11.012758609272563 0 0 0
281 1 16.215219386906583 21.62574810123017 10.993035626476354 0 -1 0
285 1 17.43606480042414 1.3523744353812386 12.23684647387764 0 0 0
159 1 20.60272276174839 1.21677840997254 9.331638331734466 0 0 0
284 1 19.052548916076315 2.5682177673454634 10.822958627025633 0 0 0
134 1 1.421290284088131 4.069004078771582 9.599298522835646 0 0 0
289 1 0.07062645963501726 5.379193724377926 10.887760261950469 0 0 0
264 1 3.9971126135803403 4.001804258878018 12.093436482346066 0 0 0
297 1 5.4429170228168955 5.474925668492531 10.825485648939278 0 0 0
142 1 6.820641986160891 4.093406727645466 9.399900721452344 0 0 0
150 1 12.10074719842601 4.16589902416064 9.54075414306424 0 0 0
272 1 9.394531839191806 4.034781194549627 12.307231989679641 0 0 0
305 1 10.848878458858918 5.470592580736524 10.976422792216304 0 0 0
280 1 14.956412794672124 4.230905308275189 12.403006349988887 0 0 0
158 1 17.819305033472283 4.109842537243847 9.531241925521936 0 0 0
313 1 16.35854085652345 5.491135991627265 10.8767474921005 0 0 0
288 1 20.333312226373533 3.9621043811807004 12.232401524216709 0 0 0
292 1 2.8013199077892246 8.14360871453421 10.903538524848873 0 0 0
293 1 1.6275520411825548 6.614587156971058 12.298673666679276 0 0 0
167 1 4.1742573056498955 6.904190734503277 9.474277802115477 0 0 0
300 1 8.213321634252916 8.19768736775796 10.854279605878133 0 0 0
301 1 6.831232344323868 6.790898782511421 12.085684344018254 0 0 0
175 1 9.670895893666637 6.877670098915891 9.567083637810523 0 0 0
309 1 12.131042351494822 6.7409073168262506 12.427187721686497 0 0 0
183 1 14.946282509255155 6.937122677943582 9.645070598616527 0 0 0
308 1 13.343031864397773 8.163328216063832 10.863890902494484 0 0 0
317 1 17.854978324369622 6.840057641098498 12.40870752314449 0 0 0
191 1 20.62222885294198 6.800518311602531 9.504414157643428 0 0 0
316 1 19.190376156146698 8.112021081216417 10.969861199666493 0 0 0
166 1 1.4768558404604712 9.640889288030944 9.400313836459947 0 0 0
321 1 21.714854796123202 10.67824152434533 11.014348823975595 -1 0 0
325 1 1.3747191569308859 12.108492879166825 12.269646432258229 0 0 0
199 1 4.180900605834692 12.467079747008547 9.376849930873092 0 0 0
296 1 4.117833758172417 9.472227508340634 12.038858232865463 0 0 0
329 1 5.470006147186868 10.95820182084245 10.730936701786549 0 0 0
174 1 6.899575732359116 9.643605327599618 9.440088028394424 0 0 0
333 1 6.756010055422622 12.204507525085637 12.236294760666311 0 0 0
182 1 11.93481387048878 9.383460350959234 9.61800279459087 0 0 0
207 1 9.270467005583882 12.313890805425249 9.410695954615592 0 0 0
304 1 9.442486829974795 9.606609690898564 12.221205978026381 0 0 0
337 1 10.66140822135349 10.8374166734673 10.814669182307195 0 0 0
341 1 12.355987021243282 12.141349496246203 12.208880847490166 0 0 0
215 1 14.89295904722959 12.08460872721441 9.535348273804155 0 0 0
312 1 14.921794802250384 9.392708559032306 12.048333767701019 0 0 0
190 1 17.863266009667054 9.47392750868078 9.539462929378985 0 0 0
345 1 16.448703173487797 10.842236933942552 10.846741688153388 0 0 0
349 1 17.755496140481632 12.183411258974406 12.24874915144789 0 0 0
223 1 20.427359086014697 12.030822361807505 9.511996359025623 0 0 0
320 1 20.498047376312897 9.369679056784529 12.379385721598899 0 0 0
198 1 1.4521650411391998 14.832689456711034 9.36788831086635 0 0 0
324 1 2.661528513818356 13.499423337513793 11.076557798465187 0 0 0
328 1 4.331704370233515 14.867803121510686 12.309832958887629 0 0 0
206 1 6.92558393733628 15.238570876382614 9.576915975183534 0 0 0
332 1 8.110338775699207 13.566500460793618 10.950426666532424 0 0 0
214 1 12.158518549300762 14.817767874063048 9.557499741609439 0 0 0
336 1 9.684227258802622 14.86521409782502 12.060606408134161 0 0 0
340 1 13.656598672246755 13.561462426166306 10.977164005505191 0 0 0
344 1 15.14106270510548 14.650044904272132 12.275557181790465 0 0 0
222 1 17.685913325749002 14.979336787926421 9.373009117742832 0 0 0
348 1 18.958694672140503 13.541306341315684 10.779450590322913 0 0 0
352 1 20.48940904946092 14.815140578297967 12.17364696644879 0 0 0
353 2 0.0302601695945293 16.322758495819507 10.80957803162358 0 0 0
357 1 1.3910157793633608 17.59520250444416 12.25446469819787 0 0 0
231 1 4.146875941254606 17.71756676576319 9.53760570792375 0 0 0
361 1 5.458767172725364 16.532008943633155 10.897503490502492 0 0 0
365 1 7.031324737496524 17.534072594746696 12.2832068107142 0 0 0
239 1 9.526162699956643 17.758167934906506 9.373848374481922 0 0 0
369 1 10.763016607354345 16.347613991863707 10.627713808716488 0 0 0
373 1 12.24796569923507 17.480206024713887 12.255301047893592 0 0 0
247 1 14.854603415646608 17.543375789860896 9.561604365528739 0 0 0
377 1 16.32645269446661 16.223175295736844 10.903997927000482 0 0 0
381 1 17.691487571492036 17.697542949922124 12.15340486511423 0 0 0
255 1 20.514809976349444 17.6324672340865 9.421245623195365 0 0 0
230 1 1.3909887243499508 20.46902257867753 9.536779100717427 0 0 0
356 1 2.654410784071372 19.10258595338993 10.876400703288748 0 0 0
360 1 4.082349617498867 20.572901813190352 12.084374397903598 0 0 0
238 1 7.017892185555855 20.384838476689513 9.412592721613326 0 0 0
364 1 8.234406860655978 19.014545751349942 10.996243909295062 0 0 0
246 1 12.22244533417756 20.472992429332702 9.559121471183497 0 0 0
368 1 9.451408704003155 20.418408785559652 12.209394146266904 0 0 0
372 1 13.502708933519402 19.039597505935966 10.837252874608 0 0 0
376 1 14.907464790214474 20.327849373415567 12.278361824415711 0 0 0
254 1 17.764996635858964 19.987797134983072 9.520925639469882 0 0 0
380 1 19.156342155791638 18.761227899874946 10.796532667971048 0 0 0
384 1 20.372435829472977 20.203501444819214 12.27168114373756 0 0 0
258 1 21.516493523188817 2.731802246435461 13.761568143513962 -1 0 0
259 1 2.7541358141968595 0.09416786615716544 13.570704731040129 0 0 0
263 1 4.102370893564536 1.6047980752550386 15.079152724468038 0 0 0
266 1 5.368788462066388 2.7978797696993496 13.500838046806079 0 0 0
267 1 8.362998824857506 0.17245819914909621 13.497982404418734 0 0 0
271 1 9.54393281500229 1.3816798922302063 14.958582465554723 0 0 0
274 1 10.722298259051657 2.722702297883233 13.49944713308866 0 0 0
275 1 13.57953640317162 21.68785403733526 13.599040775570968 0 -1 0
279 1 14.780168696085655 1.4798764071635557 14.980219450512969 0 0 0
282 1 16.165642126421034 2.703146575331548 13.472266285215929 0 0 0
283 1 18.810722295647444 21.638485727003793 13.422843207321744 0 -1 0
287 1 20.216115865323246 1.175910187295701 14.998179713544303 0 0 0
262 1 1.4668153095633039 3.8449320703419447 15.008348628257014 0 0 0
291 1 2.921264624420696 5.208529790975055 13.6543341682727 0 0 0
270 1 6.838247663511861 4.012421231351579 14.897994103721576 0 0 0
299 1 8.212169478010239 5.447432948605492 13.471071843087055 0 0 0
278 1 12.128092646301958 4.0447475492238345 14.977140645959633 0 0 0
307 1 13.630899475490294 5.487036396119065 13.722026958573187 0 0 0
286 1 17.750820633155392 3.953008284421254 14.920292617253176 0 0 0
315 1 19.103656524567423 5.343279164952541 13.524090884790137 0 0 0
290 1 0.2610181021856469 7.817189570937686 13.579976282491684 0 0 0
295 1 4.268692959615705 6.663037559274828 14.797691130744669 0 0 0
298 1 5.487220891396512 8.105549675184472 13.444172832367899 0 0 0
303 1 9.555060092601385 6.800355619539655 14.925381125564316 0 0 0
306 1 10.88458370376056 8.33344801130916 13.610341842049031 0 0 0
311 1 15.153025596264257 6.8608849723435945 15.057749126046595 0 0 0
314 1 16.32339483581199 8.205270797364712 13.590113892357708 0 0 0
319 1 20.470112339922153 6.6075446569430065 14.979138149207827 0 0 0
294 1 1.3217907218742806 9.412102286353088 14.886724204381329 0 0 0
323 1 2.938234831133513 10.860271046314407 13.416230498784666 0 0 0
327 1 4.1926241669312265 12.413690941620487 14.92023496159678 0 0 0
302 1 6.7776485870674 9.591125955658514 14.858323215005031 0 0 0
331 1 8.274004106008045 11.032265679167732 13.493964638778515 0 0 0
310 1 12.217949088022467 9.590687324269332 15.097866587528634 0 0 0
335 1 9.56916373961802 12.425847662718196 14.906579018713112 0 0 0
339 1 13.747201731751632 10.76144532852964 13.47488736438766 0 0 0
343 1 14.94711237493002 12.395082429409701 14.934433352417454 0 0 0
318 1 17.53143439301379 9.558202998149225 14.969929799853498 0 0 0
347 1 19.047042672560146 10.850970541684896 13.668467402374892 0 0 0
351 1 20.4410252361675 12.0588848047744 15.026559254011351 0 0 0
322 1 0.04723997663214238 13.577708935822555 13.631097532976744 0 0 0
326 1 1.3054761735343818 15.133687843584728 15.06268211450392 0 0 0
330 1 5.701084608834627 13.732363747954622 13.734904209822272 0 0 0
334 1 6.885404970804956 15.166950196908342 15.067785269460183 0 0 0
338 1 10.957533560990916 13.559195240912679 13.634822569237674 0 0 0
342 1 12.289433435872084 14.80746520935372 15.066158781358244 0 0 0
346 1 16.60066733713482 13.563854827245411 13.621821310210933 0 0 0
350 1 17.719031322772484 15.134651330235357 15.064598634103545 0 0 0
355 1 2.848544458065075 16.299119786567726 13.710419424486334 0 0 0
359 1 4.105320749636488 17.86778368707847 14.874463038178552 0 0 0
363 1 8.362469170056768 16.218296996281516 13.644305086275871 0 0 0
367 1 9.501222754725484 17.81184589978576 15.003599508160564 0 0 0
371 1 13.65010985580565 16.16284916731606 13.655087227101165 0 0 0
375 1 14.850934794377576 17.920286372125638 14.992154887766477 0 0 0
379 1 19.071847136188996 16.186270502991075 13.675382173488433 0 0 0
383 1 20.402390173569618 17.719794305915574 14.934276464366162 0 0 0
354 1 0.03278730730265664 19.001459000819608 13.458405837277729 0 0 0
358 1 1.2913096257753878 20.474536001674007 14.998633253997935 0 0 0
362 1 5.627382474564491 19.256785915257005 13.59997219852865 0 0 0
366 1 6.926581571041477 20.723337660157746 15.082327441079677 0 0 0
370 1 10.806778284935877 18.994477029596364 13.43871744382884 0 0 0
374 1 12.247981629145606 20.304824214707086 14.797726840668835 0 0 0
378 1 16.328399739021528 19.094044896843993 13.718576023609732 0 0 0
382 1 17.546099824077984 20.528034084346967 14.964268050280326 0 0 0
385 1 0.07113781223459872 0.0762932799796903 16.368132273740326 0 0 0
388 1 2.7090965229342934 2.7202263668040367 16.612612433321956 0 0 0
389 1 1.2678931821548913 1.4307318931987467 17.993387747652026 0 0 0
393 1 5.564543024021367 0.3329820939222656 16.564896768058254 0 0 0
396 1 8.22936435329665 2.8597022822741685 16.217267083666353 0 0 0
397 2 7.0816467897596835 1.6250926388165265 17.853235457225818 0 0 0
401 1 11.061831726846764 21.704688338954544 16.076847279172068 0 -1 0
405 1 12.287529548314353 1.3843347694078274 17.681262684999513 0 0 0
404 1 13.40439131133559 2.7888821924819553 16.366593236523922 0 0 0
409 1 16.221679360718117 0.2534169327715898 16.30499752935589 0 0 0
413 1 17.583312222655927 1.3224221044667477 17.73498052795532 0 0 0
412 1 18.939281056220157 2.627459749692877 16.46815454197321 0 0 0
417 1 0.28181131652064506 5.297420153212622 16.329018363114724 0 0 0
392 1 3.9491711291744567 4.255895185589405 17.88841074843739 0 0 0
425 1 5.279612629237808 5.386827748636123 16.263666461757726 0 0 0
400 1 9.352741638402554 4.261653175301616 17.66960493916586 0 0 0
433 1 10.776475901661405 5.4290255565092576 16.377771645770853 0 0 0
408 1 15.184975451309498 4.12728549786351 17.546370963500348 0 0 0
441 1 16.53343484609834 5.455194193864279 16.239447875009006 0 0 0
416 1 20.352901132465917 4.095308922699853 17.57521920962633 0 0 0
420 1 2.9263331406272655 8.3577518636272 16.13676219917555 0 0 0
421 1 1.5787077599387491 6.7915506960025915 17.622373424047705 0 0 0
428 1 8.101151406683341 8.120490860668186 16.257556336956714 0 0 0
429 1 6.65042664953821 6.810485839747601 17.6778461947849 0 0 0
437 1 12.32704764417188 6.715100362199737 17.51588821164247 0 0 0
436 1 13.610843759021984 8.268999806392182 16.340428496269755 0 0 0
445 1 17.852929569893732 6.940229899684121 17.56239861349238 0 0 0
444 1 19.055215966926454 8.243280146344993 16.01441945625287 0 0 0
449 1 0.015090041679782824 10.621480779608376 16.383421577902663 0 0 0
453 1 1.4748752663565472 12.133794921226677 17.682020193721584 0 0 0
424 1 4.211104642685969 9.676869811334218 17.547700597439135 0 0 0
457 1 5.597231850775064 11.098346048049539 16.191910388855895 0 0 0
461 1 6.914694901701561 12.38644391696199 17.762279212565037 0 0 0
432 1 9.411313020794681 9.579667394603188 17.610191622113177 0 0 0
465 1 10.769162238163313 11.035134315709604 16.178947067920436 0 0 0
469 1 12.444858701396761 12.336552663084003 17.75231991821525 0 0 0
440 1 14.89135691740432 9.5547869489486 17.793468107886447 0 0 0
473 1 16.266075826906015 10.942107059560104 16.48943750230436 0 0 0
477 1 17.86543324266462 12.355704799366817 17.752542109755915 0 0 0
448 1 20.453967976881394 9.281999213895347 17.763488903523697 0 0 0
452 1 2.838457867063851 13.725606958396957 16.231749232506697 0 0 0
456 1 4.079364870920343 15.092711826096648 17.77071953530274 0 0 0
460 1 8.258200366245458 13.746475758264728 16.431901426941238 0 0 0
464 1 9.646728585938972 15.086970524490578 17.698337139110542 0 0 0
468 1 13.742676930230123 13.66268015348763 16.34802384066672 0 0 0
472 1 15.080571323152714 15.077069338377756 17.932359418151602 0 0 0
476 1 19.36962568972813 13.607278221358438 16.30348708147263 0 0 0
480 1 20.389738233417262 15.036713337105395 17.888496209008924 0 0 0
481 1 21.605567467858798 16.414885031909787 16.41667430044793 -1 0 0
485 1 1.270881956270649 17.532082626033628 17.700430386193815 0 0 0
489 1 5.429949398820011 16.55428412492193 16.33964124657988 0 0 0
493 2 6.805357920423919 17.955089695197596 17.59071731896076 0 0 0
497 1 10.964425261026378 16.372545289241774 16.564882886712333 0 0 0
501 1 12.25008483394629 17.846420747735937 17.88877573318807 0 0 0
505 1 16.12143391299028 16.377334499149292 16.263578487249934 0 0 0
509 1 17.6182251804174 17.63128205245986 17.654953182628727 0 0 0
484 1 2.620286170023939 19.238421135793917 16.471043175377172 0 0 0
488 1 4.106684857178715 20.65658426236505 17.88363230453144 0 0 0