LAMMPS data file via write_data, version 29 Aug 2024, timestep = 10000000, units = metal

512 atoms
2 atom types

0 21.77481 xlo xhi
0 21.77481 ylo yhi
0 21.77481 zlo zhi

Masses

1 28.0855
2 12.011

Atoms # atomic

1 1 0.002387882784674749 0.06957672791684627 21.742952864973876 0 0 -1
2 1 21.64389662424211 2.5158693928390923 2.7173256370684444 -1 0 0
3 1 2.6495385851238935 0.18641464168864832 3.1931310555037107 0 0 0
4 1 2.6118787743430216 2.4928303639002753 21.76349077869984 0 0 -1
5 1 1.3306194478499638 1.3684773744348622 1.5948499806112137 0 0 0
9 1 5.293678265849436 21.72758129982875 0.012079715955085479 0 -1 0
10 1 5.284745745256476 2.786556156820459 2.6826915741124826 0 0 0
11 1 8.083524131092137 0.0014268989336573348 2.728479125118401 0 0 0
12 1 8.20698278770714 2.6579693035358583 0.08661659289494945 0 0 0
13 1 6.654994414838344 1.2776820196668626 1.3505335186087521 0 0 0
17 1 10.849661383918725 21.649192562596504 0.041814595596476524 0 -1 0
18 1 10.835903198837828 2.676721097612016 2.6196501933323284 0 0 0
21 1 12.22611772769556 1.3001536564455813 1.309886361291154 0 0 0
19 1 13.683824918033318 21.663980693809965 2.5241345031320184 0 -1 0
20 1 13.608345119222829 2.7362307435401068 21.7514719795441 0 0 -1
25 1 16.34262446743103 21.61570352963026 21.645114248069593 0 -1 -1
26 1 16.242368803849903 2.6806467127891835 2.7809193014087907 0 0 0
29 1 17.522971242172293 1.2825391053425002 1.409472215491637 0 0 0
27 1 18.89911392057448 21.648324288169423 2.65868082530301 0 -1 0
28 1 19.03994679490108 2.5162661289635233 0.06798477231710143 0 0 0
33 1 0.041850637080375064 5.259443164717045 21.753019171099478 0 0 -1
35 1 2.437222186664704 5.0430860699736115 2.7466040849463034 0 0 0
8 1 3.7695816790497423 3.8063440369115575 1.2504498964201758 0 0 0
41 1 5.415472597819971 5.237978173982371 0.11980875304100137 0 0 0
43 1 7.949804265329249 5.440994292677825 2.8051632497825594 0 0 0
16 1 9.406396874250847 4.134378762142422 1.360074153028691 0 0 0
49 1 10.83416207912953 5.295116859213316 21.704970205473533 0 0 -1
24 1 14.953884698651377 4.161387597122296 1.4920627578933143 0 0 0
51 1 13.48112311784486 5.451125838917889 2.7989401241937344 0 0 0
57 1 16.283153458312537 5.455597822475688 0.2616373878764737 0 0 0
32 1 20.373358880125743 3.8941696327411353 1.3612409893022006 0 0 0
59 1 19.12201569638581 5.431089929772453 2.839239126131934 0 0 0
34 1 21.641047165770306 8.198742064124314 2.510257523539685 -1 0 0
36 1 2.6840867123749925 8.13850939128462 0.12060232847983418 0 0 0
37 1 1.2264097320545064 6.587666023292184 1.447587007090624 0 0 0
42 1 5.3814578779479545 7.985666426616442 2.72662078528583 0 0 0
44 1 7.985517576090255 8.1057066632928 0.23402701296839934 0 0 0
45 1 6.598734967910392 6.542490745050921 1.3314171246016129 0 0 0
50 1 10.71735427053882 7.994436218282407 2.8031048717399725 0 0 0
53 1 12.13169686901853 6.886001876527027 1.4300940816932939 0 0 0
52 1 13.5444807747369 8.291539490866178 0.07300832348583881 0 0 0
58 1 16.279485028241446 8.08068833396281 2.840978338416632 0 0 0
61 1 17.82286845874855 6.764517697499955 1.59804583507094 0 0 0
60 1 19.09059120956717 8.162160245487804 0.22915114411304136 0 0 0
65 1 0.021222868125008766 11.083007195677178 0.008279733828196984 0 0 0
67 1 2.632397766442693 10.806075706149914 2.5873323616139827 0 0 0
69 1 1.4124379294561606 12.256634097321305 1.3353388228630587 0 0 0
40 1 4.179738518733123 9.64051070010149 1.21230007340622 0 0 0
73 1 5.5020062755297205 10.857077292648844 21.73893490770051 0 0 -1
75 1 8.153972014295872 10.884251822918738 2.383784393844361 0 0 0
77 2 6.953334343616808 12.27217945782373 1.104218209833903 0 0 0
48 1 9.527990113770644 9.537164309180731 1.3961240906581265 0 0 0
81 1 10.718400628158548 10.8927765066572 0.020457685606107126 0 0 0
85 1 12.351651041272342 12.34854296600446 1.4488508156347495 0 0 0
56 1 14.82148647696379 9.6706596231597 1.572106061998365 0 0 0
83 1 13.564216635032645 10.84554225442434 2.9747330512765253 0 0 0
89 1 16.34590208151828 11.046923862324782 0.1058998109664121 0 0 0
93 1 17.82584990932784 12.363461323133146 1.4618210118048467 0 0 0
64 1 20.36014671245985 9.74614552435985 1.474485898466309 0 0 0
91 1 19.1962662684145 11.06226182047746 2.804327735041348 0 0 0
66 1 21.72756617671468 13.39773243640701 2.8847510981985547 -1 0 0
68 1 2.5649185200182076 13.628082730668988 21.755973671862172 0 0 -1
72 1 4.028566152797141 14.920383726799374 1.3689505526780168 0 0 0
74 1 5.545964802551191 13.55412450614218 2.4913116305887657 0 0 0
76 1 8.263365608362227 13.758113723951848 21.671919567027132 0 0 -1
80 1 9.511279490450963 15.033796605846309 1.3847224848531503 0 0 0
82 1 10.948114733574176 13.815805995957664 2.638753218516526 0 0 0
84 1 13.496314808731146 13.726465125788781 21.541392865303276 0 0 -1
88 1 15.011400731232554 14.966010754144252 1.207640388061101 0 0 0
90 1 16.463832181987296 13.725436429065903 2.5916739887399265 0 0 0
92 1 19.29864955243894 13.759033293163045 21.75445326476895 0 0 -1
96 1 20.435674287914342 14.750469696555962 1.583986611691198 0 0 0
97 1 21.75383170027352 16.09088757890058 21.766638810344 -1 0 -1
99 1 2.7277236826821545 16.01570508920131 2.9277772518065452 0 0 0
101 1 1.3444873821935561 17.4943501165129 1.6903636529099655 0 0 0
105 1 5.3822440622494065 16.32154407438964 21.6964659848241 0 0 -1
107 1 7.981788630453826 16.422597078676574 2.530712016257243 0 0 0
109 1 6.645509109850949 17.655899128057683 1.2862740608660963 0 0 0
113 1 10.893124864286275 16.486315487310762 0.02554353603733796 0 0 0
117 1 12.466249014941988 17.77467389588047 1.330747641084041 0 0 0
115 1 13.816278175144983 16.302991926049184 2.703339522573005 0 0 0
121 1 16.315058255246903 16.31574189584964 21.62144513618799 0 0 -1
125 1 17.623015056742098 17.67080681851632 1.5231366739123289 0 0 0
123 1 19.028950688746388 16.26393740659982 2.9583944122674932 0 0 0
98 1 0.13535410240221946 18.921728290014208 2.9224511246993803 0 0 0
100 1 2.744108172444857 18.78714425714591 21.748134500398766 0 0 -1
104 1 3.8245465385165316 20.53971118691834 1.4242089891735528 0 0 0
106 1 5.280605168528026 19.0275567279712 2.6290811962114695 0 0 0
108 1 8.155279487748038 19.153261760383216 0.0035744669531249324 0 0 0
112 1 9.322046627904092 20.363758566198292 1.38265767664044 0 0 0
114 2 10.972137519012515 19.014075506237845 2.867058401647529 0 0 0
116 1 13.787886092818109 19.09342271371529 21.608327625184522 0 0 -1
120 1 14.995706537979471 20.244915265793175 1.219349886815157 0 0 0
122 1 16.072294003756575 19.107073964626714 2.9271569858072573 0 0 0
124 1 19.114698224168375 18.916358312020247 21.76838486737449 0 0 -1
128 1 20.433679978737363 20.233964417894878 1.263945113873283 0 0 0
129 1 21.583154903487557 21.700402527668942 5.641167931934719 -1 -1 0
132 1 2.632565402660363 2.610124229106004 5.527328908835916 0 0 0
7 1 4.278500466892897 1.5620196241811135 4.241420719315877 0 0 0
137 1 5.62603914138696 21.674485222856983 5.549486209261684 0 -1 0
140 1 8.132339909708024 2.8293001863071847 5.327154778975601 0 0 0
15 1 9.374040225609109 1.377686635989447 3.896343129040449 0 0 0
145 1 10.670378695810875 0.15964899768256288 5.2088493280392365 0 0 0
23 1 14.949102213527809 1.2817050126728344 4.243524952506677 0 0 0
148 1 13.734125594256273 2.6419530066724497 5.574231732145049 0 0 0
153 1 16.33474065742428 21.559470110105313 5.62682932885122 0 -1 0
31 1 20.35550675593705 1.2465974094361478 4.078070134560939 0 0 0
156 1 19.008037613897585 2.6548375482079822 5.446252662541958 0 0 0
6 1 1.102895855575154 3.8699641224283745 4.240486979453427 0 0 0
161 1 21.599470568793564 5.383078229002612 5.41572991155348 -1 0 0
169 1 5.401527022490206 5.382236966812102 5.272001349999115 0 0 0
14 1 6.67420421062913 3.919964114764384 4.062938296713419 0 0 0
22 1 12.378341622506095 3.905799354320749 4.104813520155526 0 0 0
177 1 11.242353720983505 5.272340298402861 5.505231596666062 0 0 0
30 1 17.694908249819495 4.059853168970595 4.210935872560801 0 0 0
185 1 16.307082011426523 5.566179441827193 5.63237065919862 0 0 0
164 1 2.829192361457773 8.123636356246827 5.334323697051855 0 0 0
39 1 3.9805100044881208 6.614177314975082 3.9992393023226986 0 0 0
172 1 8.104031363316205 7.9079223302195185 5.2518946571406655 0 0 0
47 1 9.50557133663 6.403276230810194 4.1019713941689675 0 0 0
55 1 14.794537905502793 6.848066803350265 4.187321409116601 0 0 0
180 1 13.37899707618491 8.326044996933696 5.38252657127279 0 0 0
63 1 20.333816075635433 6.9154525271181955 4.0552275980131975 0 0 0
188 1 19.136919339314552 8.299455452190255 5.504431685795719 0 0 0
38 1 1.444012172795803 9.334143762873309 3.9613130201890927 0 0 0
193 1 0.35211403414655956 10.781207368787186 5.279397663298488 0 0 0
71 1 4.172174754004297 12.106690709779784 3.8660923022040357 0 0 0
201 1 5.602305589621671 10.803841101561307 5.263944230410698 0 0 0
46 1 6.896511839708701 9.463454271173024 3.9382265514337633 0 0 0
54 1 11.8483595729472 9.45895669012186 4.1067636302945685 0 0 0
79 1 9.376725335027773 12.342996709365613 3.8909982857920027 0 0 0
209 1 10.650631535266564 10.992743691739937 5.265759247016919 0 0 0
87 1 15.065734031496978 12.352953805142242 3.948077123095088 0 0 0
62 1 17.899668260326276 9.496396408864571 4.085384893308007 0 0 0
217 1 16.142164450057464 11.005847375338897 5.504261484108567 0 0 0
95 1 20.349085942568323 12.220294167536075 4.331158493702427 0 0 0
70 1 1.342059120749264 14.767576559255025 4.236099069853458 0 0 0
196 1 3.0015837230437103 13.611211825619607 5.351300798577755 0 0 0
78 1 6.735419259376116 14.94833891500244 3.7628220348171726 0 0 0
204 1 8.071928176605475 13.698290275292687 5.1232451685124145 0 0 0
86 1 12.371868053655819 14.991785166733129 4.129833787509728 0 0 0
212 1 13.69112836415467 13.684782893655031 5.409750259969142 0 0 0
94 1 17.565828215076653 15.116666815387603 4.193895311020286 0 0 0
220 1 19.061889944941655 13.777441798810502 5.645431944521853 0 0 0
225 1 21.733454538792763 16.21864518916973 5.598149343969918 -1 0 0
103 1 4.045764747712548 17.58931954222032 4.1867362616234844 0 0 0
233 1 5.6506946927822765 16.216809616103316 5.46095468333045 0 0 0
111 1 9.400289360530474 17.783692735364085 3.986002041171676 0 0 0
241 1 10.809591216673628 16.36223475344609 5.176685251500973 0 0 0
119 2 14.903803427853747 17.47134918942625 4.161324423837062 0 0 0
249 1 16.38549305094164 16.379120090234103 5.702340858132738 0 0 0
127 1 20.400910915823125 17.732600854741897 4.37257714442364 0 0 0
102 1 1.4313713752237174 20.368371044721847 4.462017267871467 0 0 0
228 1 2.8674995089961133 18.91945684318064 5.775425226651524 0 0 0
110 1 6.733497371485466 20.338898615955824 3.9439579574965586 0 0 0
236 1 7.985903433648498 19.144444691710934 5.420865808128075 0 0 0
118 1 12.341164680987678 20.53720873097955 4.084471766457765 0 0 0
244 1 13.534477591116973 18.84549369979013 5.331228997000352 0 0 0
126 1 17.726493756597662 20.24520474941235 4.190646717489698 0 0 0
252 1 19.10687570642396 19.083757483702545 5.657768188612499 0 0 0
130 1 0.04718058280563211 2.6600583922980046 8.234558448584457 0 0 0
131 1 2.5608457939801514 0.0256324867792338 8.323056115364867 0 0 0
133 1 1.274597271593189 1.1668007395155584 6.989232128098066 0 0 0
138 1 5.4454474657975585 2.707159344094002 8.10977475927148 0 0 0
139 1 8.122968236480425 0.13299774195251743 8.149382210140972 0 0 0
141 1 6.83111421770455 1.5289722789509723 6.737348734617489 0 0 0
146 1 10.880575495330621 2.9864076765100798 8.190720767758659 0 0 0
149 1 12.258991524345973 1.4390997715917992 6.713419355016869 0 0 0
147 1 13.541654199340488 0.10305922906590417 8.159548179071969 0 0 0
154 1 16.378764929941923 2.6615035012879935 7.992288607488784 0 0 0
157 1 17.827191500529143 1.3002928628386703 6.760648066928408 0 0 0
155 1 19.010295280828963 0.17841139773593975 8.477352388345826 0 0 0
163 1 2.563193881153312 5.499522826024053 8.28352015274547 0 0 0
136 1 4.148204054902691 3.850987850474286 6.768041422997908 0 0 0
171 1 8.013606517803016 5.277749018552934 7.87329090532276 0 0 0
144 1 9.607183172888186 4.084799879713742 6.665966206406051 0 0 0
152 1 15.007803596410609 4.183716922697726 6.833770634864168 0 0 0
179 1 13.6522499276718 5.555683989750471 8.080631582516245 0 0 0
160 1 20.4703409345358 4.128220451748723 6.907935949017523 0 0 0
187 1 19.05211366040528 5.391150546240167 8.153218883308078 0 0 0
162 1 0.18851908712168902 7.975938071776918 8.069296068034204 0 0 0
165 1 1.3430570131096606 6.755668051981254 6.732217888250162 0 0 0
170 1 5.639623445168551 8.101884405049741 8.085353324995344 0 0 0
173 1 6.8576860361523275 6.662548625749732 6.5306665278230485 0 0 0
178 1 10.71271128383445 8.218773463728434 8.062560307565825 0 0 0
181 1 11.97975225459274 7.026384300225277 6.80178531612061 0 0 0
186 1 16.212076985681076 8.60058907225347 8.17629788028115 0 0 0
189 1 17.647599726235303 7.045526411034079 6.897478763794708 0 0 0
195 1 2.961208300524185 10.71999674222354 8.173455717953688 0 0 0
197 1 1.668133816662131 12.253671964980024 6.772892165145877 0 0 0
168 1 4.202389856579769 9.360424799998928 6.911618813891543 0 0 0
203 1 8.212340033552866 10.984471374850191 8.229785218203213 0 0 0
205 1 6.834862832359638 12.236351475232734 6.728202049816391 0 0 0
176 1 9.378475576778364 9.440560139649085 6.600699779686131 0 0 0
213 1 12.24961743452079 12.119442011260467 6.655151013564998 0 0 0
184 1 14.720046206896887 9.716084893000989 6.759189442958101 0 0 0
211 1 13.420090556110374 10.982592927337482 8.323250018922405 0 0 0
221 1 17.737150876388586 12.355190612527021 6.947597329115793 0 0 0
192 1 20.680199727338 9.543644459402614 6.76680468199054 0 0 0
219 1 19.32363922914157 10.909339554755281 8.017714148301364 0 0 0
194 1 0.08675197031977704 13.474164382973505 8.24326896914819 0 0 0
200 1 4.358759104451552 14.916330165583085 6.911779591835744 0 0 0
202 1 5.655976734036174 13.574665880221387 8.288027999725593 0 0 0
208 1 9.421307483642885 15.124160311256494 6.789758025076722 0 0 0
210 1 10.95688163158915 13.772855121862904 7.890322150438158 0 0 0
216 1 14.978814413579487 14.914441257583057 7.0350325822981485 0 0 0
218 1 16.222741757206766 13.479915549033153 8.296126791878114 0 0 0
224 1 20.446821390264763 14.994913494091998 7.093598134994982 0 0 0
227 1 2.68947041723181 16.275694885098098 8.032998848241045 0 0 0
229 1 1.198730259440499 17.677583486841208 6.855896646329395 0 0 0
235 1 8.173064421078452 16.333541910310625 8.1929139982472 0 0 0
237 1 6.829000686813526 17.57553896305039 6.995782619013604 0 0 0
245 1 11.967553565750912 17.630892079053822 6.491361141526505 0 0 0
243 1 13.702505984831847 16.480733661375208 8.171146459012395 0 0 0
253 1 17.80119161810991 17.74460379419786 6.826710574871903 0 0 0
251 1 19.10047014567266 16.341874846190706 8.382210697443979 0 0 0
226 1 0.19044970483994372 19.140455204621233 8.402179382238314 0 0 0
232 1 4.092955259973706 20.400618335698002 7.023968103816128 0 0 0
234 1 5.323264815652107 18.99934047324202 8.152928417026441 0 0 0
240 1 9.454464891062651 20.588062131002612 6.70947301250259 0 0 0
242 1 10.854218549845013 19.22833048217518 8.214296722265878 0 0 0
248 1 14.736666759812923 20.341498867977872 6.697906716375259 0 0 0
250 1 16.29862320609624 19.153001528926985 8.085953118207982 0 0 0
256 1 20.36015850079897 20.448359600705654 7.192201851796517 0 0 0
257 1 0.15534021950261423 0.1897713956549705 10.974464514101582 0 0 0
260 1 2.768929797533816 2.7656653994380385 10.986131012846416 0 0 0
261 1 1.4799186769202752 1.511237033240166 12.396014966800752 0 0 0
135 1 3.9874702259975554 1.493204877659476 9.563825814266979 0 0 0
265 1 5.536021739294244 0.0032957559723140835 10.86215270088826 0 0 0
268 2 8.157566431838724 2.7676697283956675 10.818473661321967 0 0 0
269 1 6.860969188445988 1.4516749100470734 12.162204632928152 0 0 0
143 1 9.620263806712108 1.5708036245954953 9.396007680064606 0 0 0
273 1 11.02702334068676 0.17405661758106855 10.811198000882964 0 0 0
277 1 12.406833193088408 1.513851935350995 12.152122825190862 0 0 0
151 1 15.113835987951276 1.4849953327978536 9.399819504265 0 0 0
276 1 13.697865114529304 3.0555419928073446 10.790218058333773 0 0 0
281 1 16.239353174838403 0.09478838483122505 10.83733500503206 0 0 0
285 1 17.57166413508666 1.3848703917532046 12.298638517856501 0 0 0
159 1 20.53887659832112 1.5683910188223111 9.77679248427687 0 0 0
284 1 18.893674163381856 2.835438723309757 10.892258720146689 0 0 0
134 1 1.3124143327427027 4.124904235772199 9.654196484803311 0 0 0
289 1 21.651672764255533 5.3958882211195345 11.055123037489828 -1 0 0
264 1 4.369447627485341 4.023859469542988 12.262923428471344 0 0 0
297 1 5.7305479780091835 5.621937727202 10.928966100355218 0 0 0
142 1 6.858605628716182 4.243517199941589 9.386942619947872 0 0 0
150 1 12.29941766963182 4.286738163618347 9.517663084559196 0 0 0
272 1 9.512591932584533 4.120035279350537 12.154328145180516 0 0 0
305 1 10.575842097279429 5.637913908700783 10.8095626810604 0 0 0
280 1 15.113184737583426 4.206498470996153 12.252487002797793 0 0 0
158 1 17.527155361733474 4.183442931786265 9.434754490749546 0 0 0
313 1 16.362341512191335 5.592022284975815 10.883130257338275 0 0 0
288 1 20.400215913961322 3.924689384112285 12.329521966544844 0 0 0
292 1 2.79266498390866 7.891921637863134 10.818151756385548 0 0 0
293 1 1.432872171958025 6.670379976590499 12.35880721332658 0 0 0
167 1 4.2548670007644676 6.642529812394459 9.496278604989115 0 0 0
300 1 8.196362251692136 8.397201120067148 10.76039239718557 0 0 0
301 1 7.07872566476661 6.914975012957088 12.035371131415236 0 0 0
175 1 9.323853173662839 6.805582787411269 9.295156263395718 0 0 0
309 1 12.150740057157725 6.821557496932665 12.2037737662217 0 0 0
183 1 14.898726303703713 6.960432332759117 9.450642451269063 0 0 0
308 1 13.635353189508077 8.07960642900081 10.916724418013734 0 0 0
317 1 17.722117799869775 6.935829983198645 12.286351893903896 0 0 0
191 1 20.44555414924738 6.788844825016628 9.602836423083028 0 0 0
316 1 19.00498053052526 8.180717031207951 10.851912504227759 0 0 0
166 1 1.4717791813204324 9.180166890399418 9.408053032925103 0 0 0
321 1 0.09068286210007645 10.68838983201457 10.823976705923315 0 0 0
325 1 1.3186501468303578 12.244956930435322 12.246969843569971 0 0 0
199 1 4.190237180727748 12.272398369810508 9.500471017997063 0 0 0
296 1 4.185702381530268 9.457889900471505 12.082192043024214 0 0 0
329 1 5.442144420941969 10.80458536385042 10.751038168716818 0 0 0
174 1 6.825634251586528 9.502602399521876 9.401348029738399 0 0 0
333 1 6.7932258739081925 12.230341073547756 12.133365596352503 0 0 0
182 1 12.272791978347353 9.304903304377104 9.457477623437638 0 0 0
207 1 9.827201978328342 12.462507454373016 9.505997507608411 0 0 0
304 1 9.413710758446829 9.618653506751825 12.204740177434413 0 0 0
337 1 10.93898081241617 10.781044751700964 10.850842218519377 0 0 0
341 1 12.296992453253319 12.306334939632059 12.272294624717501 0 0 0
215 1 14.847369966650971 12.327933250745557 9.510638914834718 0 0 0
312 1 15.213011200468046 9.55588429417331 12.184208716833536 0 0 0
190 1 17.863682845042884 9.748339061985723 9.513519356068619 0 0 0
345 1 16.4520113158332 11.109019057068291 10.743028819809858 0 0 0
349 1 17.750731992533257 12.362767208267988 12.365708435661745 0 0 0
223 1 20.570358636582046 12.104569417786822 9.431698857796809 0 0 0
320 1 20.327611946324193 9.548314256723746 12.272105745828043 0 0 0
198 1 1.2136676793295254 15.064317529198709 9.556320392723565 0 0 0
324 1 2.7607241656847643 13.662858815366812 10.862776946358869 0 0 0
328 1 3.9964006291945227 15.020269338126129 12.148168267361884 0 0 0
206 1 7.053083148154259 14.84095326780817 9.643684944610353 0 0 0
332 1 8.316380073966284 13.46934039962978 10.931791642943619 0 0 0
214 1 12.228766632758619 14.846999463554937 9.430024249601667 0 0 0
336 1 9.631951248952443 15.000449186212625 12.300407901102545 0 0 0
340 1 13.546304448019841 13.586177069485283 10.898123927594707 0 0 0
344 1 14.917558677702058 14.974969098429648 12.258997613790298 0 0 0
222 1 17.743867240758316 14.746170303205968 9.69089939311181 0 0 0
348 1 19.182914963339396 13.304600393638355 10.951068063271057 0 0 0
352 1 20.4884670162362 14.902764869597602 12.393879575460947 0 0 0
353 1 0.03725395024616972 16.53150987359263 10.948672599083325 0 0 0
357 1 1.504123881225906 17.677750642034365 12.266454097945312 0 0 0
231 1 4.020022910654889 17.753164806947556 9.41938519598303 0 0 0
361 1 5.4474016261295235 16.313946425126808 10.773753541769388 0 0 0
365 1 6.854218138712678 17.551731508888864 12.222647879662103 0 0 0
239 1 9.584532886589734 17.72073804365598 9.394184179449248 0 0 0
369 1 10.728413680544527 16.475358899834507 10.939911941727873 0 0 0
373 1 12.277224009510233 17.680717565201874 12.306953451161176 0 0 0
247 1 15.082537587659367 17.824639913575623 9.547952789768727 0 0 0
377 1 16.44412335159552 16.37735569520223 10.90805240564992 0 0 0
381 1 17.718764955514672 17.991523193006632 12.318256538305068 0 0 0
255 1 20.474989744529747 17.893664918333705 9.52067002789923 0 0 0
230 1 1.50643429032806 20.47502863163871 9.918618163961986 0 0 0
356 1 2.8040948135879082 18.91329119761653 10.94535032262754 0 0 0
360 1 4.190252962456444 20.433351822047854 12.19371339109466 0 0 0
238 1 6.789784998561181 20.423924385369116 9.554283775442563 0 0 0
364 1 8.304039280967517 19.08460601172666 10.946957910227152 0 0 0
246 1 12.152445502198676 20.497919534506494 9.548388830233995 0 0 0
368 1 9.681278432963781 20.627614927509384 12.291066277830527 0 0 0
372 1 13.521007459876357 19.024887345542925 10.798571626074217 0 0 0
376 1 14.992821330696177 20.46425164105345 12.170625154734017 0 0 0
254 1 17.656633041796933 20.510376609602627 9.6086736605764 0 0 0
380 1 19.03218852713831 19.35615348546009 10.998765669787504 0 0 0
384 1 20.57888589127868 20.538524136747384 12.33845052386394 0 0 0
258 1 0.17425521547164127 2.977718612679771 13.811425165065161 0 0 0
259 1 2.8776021571516974 0.1341875253726079 13.603394044894001 0 0 0
263 1 4.0436866018082664 1.51099208704725 15.121902571181487 0 0 0
266 1 5.56710602033979 2.7309124222565306 13.593436955703492 0 0 0
267 1 8.06737920870416 0.0519811267461335 13.628543151074107 0 0 0
271 1 9.53698406838771 1.506911349277044 14.828970351470272 0 0 0
274 1 10.887346803176953 2.8560681420486054 13.42345404689127 0 0 0
275 1 13.731646913984136 0.04894258978962659 13.428210518595103 0 0 0
279 1 14.952162069013914 1.3738681528870678 14.937709114183129 0 0 0
282 1 16.370989890132297 2.790344029005226 13.669608083658812 0 0 0
283 1 19.1247107113105 0.19476650640966545 13.58414945807524 0 0 0
287 1 20.486648119697563 1.4575334732128646 15.031182086276845 0 0 0
262 1 1.5575106291360425 4.330121146094735 15.08298405218184 0 0 0
291 1 2.921451842218606 5.377158835749694 13.484098475999032 0 0 0
270 1 6.807407788225257 4.162829204399758 15.026051516311458 0 0 0
299 1 8.256273731891596 5.354323041242238 13.65713729160811 0 0 0
278 1 12.224182832568147 4.19814333716396 14.761139987073559 0 0 0
307 1 13.766517808425801 5.627186063930859 13.560263920703292 0 0 0
286 1 17.625219238141266 4.159617020395335 14.99135878403484 0 0 0
315 1 19.044986418848698 5.628691001686342 13.684266704933943 0 0 0
290 1 0.06329963430141523 8.001297386671835 13.568585810877428 0 0 0
295 1 4.042161895956058 6.897384524551083 14.990830796001294 0 0 0
298 1 5.453495428522241 8.08277674788792 13.458677524448724 0 0 0
303 1 9.730028516096453 6.523556565028559 14.975361922963835 0 0 0
306 1 10.792406472187292 8.313116318253892 13.578721712014445 0 0 0
311 1 15.103540380506919 6.792393259917386 15.235405777613174 0 0 0
314 1 16.226633375325456 8.243905943006755 13.641373670220288 0 0 0
319 1 20.363535471083306 6.937088123309218 15.162536455387995 0 0 0
294 1 1.2733806420350227 9.458331606388445 14.703169891882713 0 0 0
323 1 2.838473159191915 10.628844114533628 13.491765882122191 0 0 0
327 1 4.093926262429448 12.133542071125225 14.875601661727268 0 0 0
302 1 6.873527277763044 9.354179520957606 14.812484663783382 0 0 0
331 1 8.08840554674212 10.87910531143766 13.510507252713305 0 0 0
310 1 12.25417649555583 9.336199530834133 14.945892198219322 0 0 0
335 1 9.669239706767309 11.952145155218611 14.878697948667794 0 0 0
339 1 13.600165144779698 10.811861407601999 13.48646370809781 0 0 0
343 1 14.872858002843447 12.177725952951738 15.177299454452415 0 0 0
318 1 17.562173853724016 9.605910637700699 14.979493544739498 0 0 0
347 1 19.15666824212133 10.972511687568884 13.634342452491712 0 0 0
351 1 20.31666193447507 12.458607875936819 15.038368631511442 0 0 0
322 1 0.05970992077194331 13.577786528492606 13.556831825702806 0 0 0
326 1 1.2169145240013328 15.031480559904931 14.928355486433498 0 0 0
330 2 5.376371313169963 13.499960688285594 13.442789398546621 0 0 0
334 1 6.833463671455089 14.73149205387065 14.760238605659715 0 0 0
338 1 10.838352875020142 13.538661781235584 13.728315941376742 0 0 0
342 1 12.147302547229602 14.980653757429167 14.965598653077334 0 0 0
346 1 16.21804804714443 13.475466715354958 13.660582087413868 0 0 0
350 1 17.541709988931224 15.167436463561776 14.788405606555637 0 0 0
355 1 2.5625341778357242 16.313804727047803 13.693508486641019 0 0 0
359 1 3.9120228888415127 17.626896391752652 15.06119298710761 0 0 0
363 1 8.303802716603446 16.145621377759014 13.556726203089601 0 0 0
367 1 9.47046860589713 17.713697507099244 14.865235911600337 0 0 0
371 1 13.618335831075258 16.38578737690936 13.730583971644352 0 0 0
375 1 15.031574746486976 17.867001322282963 15.081074736227482 0 0 0
379 1 19.184648484496087 16.635815288315676 13.523553662858568 0 0 0
383 1 20.31216789619667 17.917247742566254 14.933939229183597 0 0 0
354 2 0.10279744393283763 19.175373317614774 13.723638579805781 0 0 0
358 1 1.443903551124145 20.590855658264697 15.060551715352942 0 0 0
362 1 5.335746427556222 18.904905807057535 13.58787961110004 0 0 0
366 1 6.691489126291888 20.272209642530196 14.824655204684975 0 0 0
370 1 10.900515944337462 19.030555452423723 13.565923396991247 0 0 0
374 1 12.320339345516372 20.576278982314328 14.814587195645725 0 0 0
378 1 16.39389991971913 19.226920572243166 13.781738783427633 0 0 0
382 1 17.702579284967122 20.710691301805724 14.945093048096151 0 0 0
385 1 21.7392456623321 0.1549533167579128 16.47560535277467 -1 0 0
388 1 2.672507852691917 2.8724979521174987 16.53306239032209 0 0 0
389 1 1.4274687652983218 1.3446618608804117 17.794337804319575 0 0 0
393 1 5.464460930563828 21.75840047771809 16.26085831495836 0 -1 0
396 1 8.1142697510994 2.7196183546585395 16.358202514533197 0 0 0
397 1 6.927238508126439 1.4082986839110814 17.690694951505645 0 0 0
401 1 11.015552384521591 0.2090474400871086 16.219192637648796 0 0 0
405 1 12.177549014424653 1.3963424593733713 17.85394541983152 0 0 0
404 1 13.600558085843346 2.7590302565698233 16.124542963389114 0 0 0
409 1 16.291100936949743 0.2015257676933725 16.314770491229577 0 0 0
413 1 17.86230256501345 1.3920722578001417 17.742610088462246 0 0 0
412 1 19.035590668135296 2.8358467194627472 16.252809754815278 0 0 0
417 1 0.11974346278081859 5.636374434306069 16.5387397575082 0 0 0
392 1 4.108007613164489 4.125294251800245 17.74257559394499 0 0 0
425 1 5.404056047061726 5.480619129088917 16.258414954849112 0 0 0
400 1 9.38642898752542 4.109230946869582 17.509356692141917 0 0 0
433 1 11.007587290011493 5.229623600282518 16.441533593637345 0 0 0
408 1 14.87987125714565 3.9827922945405914 17.87014598794004 0 0 0
441 1 16.41025523707427 5.434324098863366 16.599578029450456 0 0 0
416 1 20.37185739420712 4.159452063329331 17.60850616862471 0 0 0
420 1 2.784890026873921 8.30039570988453 16.33939313398698 0 0 0
421 1 1.4177226645414378 7.115252206517757 17.94693274233284 0 0 0
428 1 8.294488589557515 7.939544946587617 16.185267544153845 0 0 0
429 1 6.888768608049507 6.738528987762061 17.683343697337808 0 0 0
437 2 12.01705426333724 6.8308220258338315 17.804544134069385 0 0 0
436 1 13.556899474829674 8.111334576230467 16.565780001886502 0 0 0
445 2 17.681418744712946 6.883702955672928 17.970477134914248 0 0 0
444 1 18.811590052071285 8.090027451500417 16.32093423804719 0 0 0
449 1 21.69980446089207 10.855689637743787 16.278574155911187 -1 0 0
453 1 1.3879284997336034 12.231799385736256 17.536710323115713 0 0 0
424 1 4.192622584053585 9.534256864667016 17.801427304133664 0 0 0
457 1 5.571432586845276 10.821852553264197 16.06512233460603 0 0 0
461 1 6.769172692919898 12.270824838857461 17.50671571639186 0 0 0
432 1 9.377121979376483 9.417172398994792 17.63386272031119 0 0 0
465 1 10.967821076554193 10.630363381471726 16.340617410270987 0 0 0
469 1 12.298092157477425 12.261575406796268 17.707258799167604 0 0 0
440 1 14.9252453698807 9.537660662902287 17.910200551658875 0 0 0
473 1 16.12998747808099 10.805264526854392 16.45205494928507 0 0 0
477 1 17.62477026906868 12.186691708524862 17.51304617827337 0 0 0
448 1 20.242784342846484 9.51377597520136 17.70742806733809 0 0 0
452 1 2.7155079085673 13.570995343859002 16.004587818101033 0 0 0
456 1 4.026197634673235 14.863719088235653 17.330128811546114 0 0 0
460 1 8.24937571551952 13.336386141066113 16.11691175518915 0 0 0
464 1 9.61850586172753 14.8020844621591 17.36725471145217 0 0 0
468 1 13.732636452668297 13.694767074921764 16.417871122494752 0 0 0
472 1 15.093820255237784 15.029133034244769 17.817301700555618 0 0 0
476 1 18.90014818157695 13.798156327039008 16.197489984357592 0 0 0
480 1 20.303012764914023 15.046302979509173 17.70963200524866 0 0 0
481 1 21.595462523207505 16.40970621004808 16.145757412541926 -1 0 0
485 1 1.3261700702847694 17.700806196731808 17.52971546446053 0 0 0
489 1 5.358677193192319 16.07785450970755 16.038890840302813 0 0 0
493 1 6.697843136806231 17.48139776150719 17.762783454482445 0 0 0
497 1 10.88633690559843 16.520115427678 16.059857364197207 0 0 0
501 1 12.324297096604221 17.654659140955964 17.613655297823733 0 0 0
505 1 16.23606132795766 16.38674869222442 16.386496222597405 0 0 0
509 1 17.821654947227746 17.57943576380679 17.713055660806017 0 0 0
484 1 2.779102762018675 19.232360929087655 16.426476247434852 0 0 0
488 1 4.233467735268888 20.399145544826837 17.856638417800802 0 0 0