LAMMPS data file via write_data, version 29 Aug 2024, timestep = 10000000, units = metal

512 atoms
2 atom types

0 21.77481 xlo xhi
0 21.77481 ylo yhi
0 21.77481 zlo zhi

Masses

1 28.0855
2 12.011

Atoms # atomic

1 1 21.37548050481313 0.006593401698886979 0.051367143411447526 -1 0 0
2 1 21.694402913723728 2.571787212539216 2.901469021110351 -1 0 0
3 1 2.814671876765415 0.22943823736569213 2.5760015943734804 0 0 0
4 1 2.686302951940865 2.59175622275146 0.23445980951703327 0 0 0
5 1 1.206979608928744 1.3028925032606578 1.3485021658069736 0 0 0
9 1 5.50539022828184 0.27032140059313225 21.72857609830393 0 0 -1
10 1 5.456358028686947 2.759565442926645 2.750157591289908 0 0 0
11 1 8.172901183318366 21.722766644362974 2.8119706586670783 0 -1 0
12 1 8.228383045527199 2.6054867612118966 0.1412322671310529 0 0 0
13 1 6.986258036837245 1.366908771232657 1.71034502611486 0 0 0
17 1 10.80026544048669 21.558127923003163 0.15568113010726176 0 -1 0
18 1 10.884260999111751 2.59775860787942 2.773977612628152 0 0 0
21 1 12.208843765151917 1.4272546628394607 1.2172198397957295 0 0 0
19 1 13.686469878956597 21.758481706949826 2.7528689183650377 0 -1 0
20 1 13.420377483766517 2.710300573409965 21.768882420749705 0 0 -1
25 1 16.403558396098276 0.09877812683423286 21.46501033018589 0 0 -1
26 1 16.270577456177673 2.749831335810022 2.695714448606012 0 0 0
29 1 17.631785984670678 1.4815265713452632 1.2188833226641593 0 0 0
27 1 18.939389554217165 0.21779806785023786 2.8433278922450516 0 0 0
28 1 19.185797118226695 2.90093285744386 21.5862901670788 0 0 -1
33 1 0.1447593705566704 5.498384771025023 0.140511692483188 0 0 0
35 1 2.8014549721890836 5.406078866463168 2.515962682407316 0 0 0
8 1 4.17222336530014 4.041152136467786 1.3665625105652317 0 0 0
41 1 5.4505768901146485 5.377176439334314 21.62600769729089 0 0 -1
43 1 8.23654843889022 5.488691440176492 2.6778211345686946 0 0 0
16 1 9.748399915116861 4.063405616860843 1.358086864805675 0 0 0
49 1 10.895882705736087 5.437695336321629 21.6191322296729 0 0 -1
24 1 14.901272042270747 4.3034693333839344 1.3456916293332521 0 0 0
51 1 13.575536377185587 5.535920822995788 2.7644938652258495 0 0 0
57 1 16.331293137040667 5.605559617496691 21.657024151857975 0 0 -1
32 1 20.784298481653735 3.9808949558766553 1.3922249787417837 0 0 0
59 1 19.08353108588064 5.217423601695911 2.509368240762485 0 0 0
34 1 21.714908511123856 8.179611696482874 2.6894416259235703 -1 0 0
36 1 2.83314639077105 8.134531525368361 0.09256664760216077 0 0 0
37 1 1.4319609471238426 6.786949513458414 1.4125300308968505 0 0 0
42 1 5.518958288056606 8.083621952307467 2.658757670964888 0 0 0
44 1 8.335982590793272 8.049836184651763 21.596916591177322 0 0 -1
45 1 6.934892226437787 6.591487081274258 1.2130828532532776 0 0 0
50 1 10.921133612100508 8.261999076668486 2.607556340644233 0 0 0
53 1 12.168445298423386 6.796540859739752 1.2498863930790232 0 0 0
52 1 13.5657170402613 8.273220672092963 21.772561216474706 0 0 -1
58 1 16.3448621029999 8.169908226446097 2.7656620113350856 0 0 0
61 1 17.846221451178856 6.813662670973853 1.4368464315605434 0 0 0
60 1 19.043477126322163 8.208171216214339 0.023260518683446616 0 0 0
65 1 0.019171299415594614 11.07395210457687 0.1868057098220629 0 0 0
67 1 2.8601003796592424 10.896860451096108 2.850566784346778 0 0 0
69 1 1.3317227151552287 12.210055420361861 1.5842871796160993 0 0 0
40 1 4.207526547074787 9.495302244319873 1.4594188026718118 0 0 0
73 1 5.469622299523024 10.935363003940303 0.1537972934974578 0 0 0
75 1 8.194107027940866 10.780363888996645 2.5144172185796227 0 0 0
77 1 6.858171966069441 12.261593091447947 1.4057020757684275 0 0 0
48 1 9.633462062973187 9.57885094744486 1.259047821292283 0 0 0
81 1 11.03819512034372 10.878683434387082 21.70007045327045 0 0 -1
85 1 12.277688074805981 12.31913654893957 1.4566593573304984 0 0 0
56 1 15.098100275766415 9.571975748780106 1.3248155479860177 0 0 0
83 1 13.846369480061776 10.835887538271718 2.694213578800889 0 0 0
89 1 16.36863922018454 10.973460514216935 21.69615531788844 0 0 -1
93 1 17.641214425018735 12.29009727217608 1.3220691413578505 0 0 0
64 1 20.316324650699805 9.759966162280804 1.367538110565147 0 0 0
91 1 18.85836542787339 11.02695553985616 2.7665810721568262 0 0 0
66 1 0.03159984992874976 13.575904757502045 2.7929419207899193 0 0 0
68 1 2.6910386407367355 13.563839461730145 0.09809516344349095 0 0 0
72 1 4.081786586981788 14.823240385848946 1.468630144872078 0 0 0
74 1 5.398231377177185 13.586701602394415 2.8325983157984407 0 0 0
76 1 8.165490746052187 13.716378417349738 0.08968027247098752 0 0 0
80 1 9.564882398357984 15.079639218662313 1.3380294886328168 0 0 0
82 1 10.973908076101552 13.761192882087714 2.802096196883059 0 0 0
84 1 13.58810998070065 13.650139357542667 0.0720498492242442 0 0 0
88 1 14.942136838187936 14.958151242431782 1.3058553256860082 0 0 0
90 1 16.308568567980792 13.688610529194007 2.7887878589557986 0 0 0
92 1 19.13797631595903 13.734650051622042 21.6476337782666 0 0 -1
96 1 20.608073213063218 15.026318549562701 1.352913077465952 0 0 0
97 1 0.032185650017687514 16.385659144082762 0.0021103699045733654 0 0 0
99 1 2.6274171896188867 16.33424855828282 2.609228501185388 0 0 0
101 1 1.446902429335037 17.804444585277555 1.1588990516419726 0 0 0
105 1 5.3561821049779725 16.335399479898864 0.12173341357679274 0 0 0
107 1 8.088959253865099 16.323475323244637 2.651758861269598 0 0 0
109 1 6.696408453594481 17.739296524776226 1.409994839464569 0 0 0
113 1 10.809923798585848 16.50325945151689 21.672583384714674 0 0 -1
117 1 12.383146075576756 17.697843410708117 1.5385394648689497 0 0 0
115 1 13.691562846526413 16.308309427258127 2.7733371532206097 0 0 0
121 1 16.559729313542395 16.374363538971874 0.2054196803364049 0 0 0
125 1 17.832271743003254 17.878736537043427 1.3934439403425765 0 0 0
123 1 19.09360991550285 16.36383756951818 2.7903922993313297 0 0 0
98 1 0.12465029405078612 19.009365145955424 2.8075101261590842 0 0 0
100 1 2.927688561612818 19.22294620595432 21.626449940994522 0 0 -1
104 1 4.250594720067883 20.490845622943677 1.420580625288043 0 0 0
106 1 5.504180904988005 18.987430910728417 2.801267784083245 0 0 0
108 1 8.024605479598556 19.02496706647543 0.08041465743587768 0 0 0
112 1 9.468282410896355 20.399511256883148 1.6266009460084183 0 0 0
114 1 10.935046207961525 19.002856043428945 2.949241934343961 0 0 0
116 1 13.654463856046679 19.125067326762647 0.15605262715162516 0 0 0
120 1 15.104124885659852 20.527180579385142 1.3017692095968814 0 0 0
122 1 16.389393038098493 19.07577076618408 2.6363235227193713 0 0 0
124 1 19.060832817828977 19.216843977656968 21.74175527038387 0 0 -1
128 1 20.473196913073657 20.472625656527963 1.635481501680558 0 0 0
129 1 0.05196253305627727 21.692828630971487 5.551796814071116 0 -1 0
132 1 2.743601185530117 2.786784871774836 5.34429820274378 0 0 0
7 1 4.121207713759616 1.5399736684817933 4.0368042648137505 0 0 0
137 1 5.39950594936514 0.1974492164443818 5.3749872309058375 0 0 0
140 1 8.09557461420515 2.7442203338733666 5.433767327459964 0 0 0
15 1 9.517463039049302 1.2869614732301884 4.037826123806528 0 0 0
145 1 10.888903524158158 21.666502673185136 5.466839069723005 0 -1 0
23 1 15.009733293965875 1.4520502267968989 4.1734060294114705 0 0 0
148 1 13.663710639862302 2.882496124047996 5.3330761453039806 0 0 0
153 1 16.389938548474007 0.0840249362957106 5.489647479465231 0 0 0
31 1 20.398777703061615 1.2527986547013823 4.189769561966406 0 0 0
156 1 18.99102516189092 2.6704821560977097 5.384159762817102 0 0 0
6 1 1.421670398546174 4.065201101439162 3.905689454357532 0 0 0
161 1 21.62281273682392 5.222603019766319 5.1673216658137235 -1 0 0
169 1 5.452374344222273 5.532352827226191 5.340460390820168 0 0 0
14 1 6.807286292223472 4.188368073792287 4.086451991224219 0 0 0
22 1 12.200489704840844 4.084584476722131 3.9728113982833193 0 0 0
177 1 10.804807482960275 5.130960408450456 5.571916713304178 0 0 0
30 1 17.655347994546432 4.152236008413268 4.074511462746232 0 0 0
185 1 16.318386480479244 5.4273875953826405 5.382107552319913 0 0 0
164 1 2.4817581439499463 8.0694543435555 5.323099607823249 0 0 0
39 1 4.037915516282423 6.705641969671728 3.8923736773917086 0 0 0
172 1 8.256673525555307 8.258216860140012 5.29674493590519 0 0 0
47 1 9.642524423173194 6.790687293465246 4.218650538529748 0 0 0
55 1 15.056203061155864 6.818640187503964 4.129675651256702 0 0 0
180 1 13.681775883686393 8.280927471499687 5.266038981758063 0 0 0
63 1 20.322992862700886 6.730198941963175 3.988227058140628 0 0 0
188 1 18.917824379007953 8.131855772998309 5.256163430320634 0 0 0
38 1 1.2402800540681853 9.613708615421649 4.019575268851905 0 0 0
193 1 0.03666709071519989 10.90863594262723 5.462645122343067 0 0 0
71 1 4.01961348116454 12.160400251474812 4.2629204528588405 0 0 0
201 1 5.600468257712471 11.001743622552326 5.556489146707377 0 0 0
46 1 6.878512230860033 9.652349784041823 4.01254424829245 0 0 0
54 1 12.37214956825778 9.588519029121873 3.998683881127522 0 0 0
79 1 9.589737268998888 12.381008199128091 3.90769129582359 0 0 0
209 1 10.923937449041592 10.898442010536295 5.254457387462248 0 0 0
87 1 14.944768630150039 12.211604781706935 4.257647724964518 0 0 0
62 1 17.4100957889583 9.661402819325676 4.152543012166582 0 0 0
217 1 16.10808894343457 10.925685442749765 5.470363281146083 0 0 0
95 1 20.343110407364993 12.25342631960079 4.216275252021151 0 0 0
70 1 1.5603328883566516 15.02868681333356 4.249619763941534 0 0 0
196 1 2.7998587704566456 13.532385166734825 5.641201824304666 0 0 0
78 1 6.876090051584814 15.032278420403413 4.139955735379575 0 0 0
204 1 8.201585422589316 13.551151115805762 5.433045235039762 0 0 0
86 1 12.29163269401956 15.032811963339826 4.260949789082536 0 0 0
212 1 13.6142896815621 13.524518737310203 5.499687593954524 0 0 0
94 1 17.74241525497438 14.943300848897008 4.165466367786147 0 0 0
220 1 18.945451780387828 13.624659863297287 5.421188459342832 0 0 0
225 1 0.2695311903228458 16.335223569116025 5.536923565129996 0 0 0
103 1 4.083436301924909 17.50544773068198 4.028616902302465 0 0 0
233 1 5.51166096418495 16.241303871527734 5.554578624213023 0 0 0
111 1 9.509399378180214 17.691064482881615 4.16401704831091 0 0 0
241 2 11.061249373252148 16.33075207696813 5.475203134592302 0 0 0
119 1 15.019018614745326 17.867667972305206 4.206770331691971 0 0 0
249 1 16.246333846171964 16.498229834021426 5.398490575319462 0 0 0
127 1 20.523528231882796 17.481397264076403 4.196330703931691 0 0 0
102 1 1.5587667719676939 20.559174795979516 3.9683468318771538 0 0 0
228 1 2.9108497311072217 19.0508390460082 5.306034874014055 0 0 0
110 1 6.7826020226970005 20.404628634090773 4.041573531702078 0 0 0
236 1 8.027635992544113 18.8289567932331 5.397797165559703 0 0 0
118 1 12.197252556192044 20.549604526842657 4.213598248728655 0 0 0
244 1 13.499088383747242 19.062625139291715 5.522084871247804 0 0 0
126 1 17.60806911808741 20.60330602577149 4.0726657403210105 0 0 0
252 1 18.99465328380389 18.91467401364623 5.2402846408106045 0 0 0
130 1 0.02208915239389215 2.5586520976251643 8.03504520939061 0 0 0
131 1 2.79368263059343 21.666888470419316 8.207317530182817 0 -1 0
133 1 1.4873640102100762 1.286085464423279 6.704958310132103 0 0 0
138 1 5.228235844587842 2.7472364213062046 8.033987000334614 0 0 0
139 1 8.17744490696305 0.19241487345181918 8.010858399521736 0 0 0
141 1 6.747689835180722 1.4286586123787266 6.7336683014612 0 0 0
146 1 11.124717461342392 2.83158465591 8.19878688584834 0 0 0
149 1 12.306338713149541 1.4283778922492072 6.609417779207257 0 0 0
147 1 13.44657245274097 0.26941056383236084 8.162260337663161 0 0 0
154 1 16.2755804125993 2.5815067358272765 8.255857219168524 0 0 0
157 1 17.694690581233996 1.4965769597569094 6.947661184546914 0 0 0
155 1 18.929377077521302 21.614424800030427 8.118910523016252 0 -1 0
163 1 2.6702850416308452 5.448263535685737 8.06057970563267 0 0 0
136 1 4.070843734158942 4.146657994738997 6.649091370041265 0 0 0
171 1 8.087549653820048 5.527662786363219 8.20751964547672 0 0 0
144 1 9.375502025636989 3.8939823950615287 6.8892508012317 0 0 0
152 1 15.084932497260525 4.086612522817426 6.928689864381967 0 0 0
179 1 13.7014149407174 5.62160768606092 8.256278111551994 0 0 0
160 1 20.174749714659693 3.8923199757862434 6.758220364162752 0 0 0
187 1 18.88954332305236 5.187375951083907 7.944975649234535 0 0 0
162 1 21.5277618417421 8.039566314671568 8.037115029399333 -1 0 0
165 1 1.0643452333887244 6.644894082851183 6.703246835113111 0 0 0
170 1 5.5431432485847925 7.87689629123822 8.15093457907853 0 0 0
173 1 6.827467782078983 6.846588148595841 6.61787952097461 0 0 0
178 1 11.094538495364631 8.101414601554806 8.099568494957943 0 0 0
181 1 12.39617032296978 6.622866126773414 6.537605322220242 0 0 0
186 1 16.267425383688355 8.216611841442704 8.179311291612917 0 0 0
189 1 17.768006845395604 6.776612956634832 6.6660861912053315 0 0 0
195 1 2.6713199920953987 10.858729906902434 8.177318787821243 0 0 0
197 1 1.3541942392924573 12.234117407464947 6.819211606026974 0 0 0
168 1 4.264246821351085 9.329683051694323 6.746734172351327 0 0 0
203 1 8.294247432559189 10.917631759724575 8.228619536681952 0 0 0
205 1 6.867337355740789 12.18513490317605 6.946770936355551 0 0 0
176 1 9.631164918431663 9.55899466261983 6.8603226961402255 0 0 0
213 1 12.230242623530735 12.276921266588834 6.747229580551578 0 0 0
184 1 14.920159134983953 9.566844105710535 6.887622935545054 0 0 0
211 1 13.699679044672004 10.934480218065188 8.2612236419367 0 0 0
221 1 17.628861506891543 12.093445649207261 6.583617509855028 0 0 0
192 1 20.249405926837394 9.41659286860806 6.662254496820091 0 0 0
219 1 19.091731171192816 10.79039087127346 8.175611312239345 0 0 0
194 1 21.763075878470563 13.722453468866076 8.063678776243888 -1 0 0
200 1 4.197061733763712 14.789543373414194 6.884512644064417 0 0 0
202 1 5.6430717410346025 13.56809280117632 8.332124268753228 0 0 0
208 1 9.658791364399708 15.014899216454339 6.754226020647078 0 0 0
210 1 10.934692974482287 13.61906428344435 8.094251502271474 0 0 0
216 1 14.889653615739329 15.046029160520622 6.6767100400927335 0 0 0
218 1 16.423397279889514 13.659885720680984 8.039050436296316 0 0 0
224 1 20.587581076673604 15.003299257216602 6.707667330332646 0 0 0
227 1 2.9102509470094122 16.214010809277237 8.15426912994339 0 0 0
229 1 1.5665130528030429 17.70277778421677 6.874652571524562 0 0 0
235 1 8.233405034581224 16.269244750049985 8.166554970096149 0 0 0
237 1 6.79622000320692 17.617482863815855 6.8203971174771505 0 0 0
245 1 12.188151777067102 17.561951301209064 6.972127109257215 0 0 0
243 1 13.688012714076548 16.29234057186416 8.30142229118828 0 0 0
253 1 17.591610368942614 17.672574670943487 6.9224730791526135 0 0 0
251 1 19.134865567344775 16.360438037392928 8.170575948448553 0 0 0
226 1 0.06933249883756523 19.025077380730174 8.138958150054032 0 0 0
232 1 4.178008901619698 20.373610013482164 6.655928493137118 0 0 0
234 1 5.491126944107163 19.106188655551513 7.983569342178244 0 0 0
240 1 9.394141712533319 20.28735326504157 6.848094276201853 0 0 0
242 1 10.821719183768632 19.07367318940229 8.042986615739409 0 0 0
248 1 14.901787949880518 20.660904042591977 6.982100717368088 0 0 0
250 1 16.222852918042847 19.129167218672656 8.250217345567018 0 0 0
256 1 20.22763093712444 20.224293283066 6.668664027423711 0 0 0
257 1 0.0030393206604927138 21.534261563321582 10.837719234601485 0 -1 0
260 1 2.5190105914822625 2.672778798053259 10.856931483753007 0 0 0
261 1 1.3107313346144347 1.3060235047591662 12.256023550143098 0 0 0
135 1 3.913884468520477 1.4634125590023834 9.47041873656965 0 0 0
265 1 5.474872223628523 0.25025148041319784 10.993334973352102 0 0 0
268 1 8.074397627851614 2.7108992586153917 10.957356214353473 0 0 0
269 1 6.730336025515606 1.4402296922931273 12.50693438853039 0 0 0
143 1 9.520821053629328 1.3962017041195471 9.428592710084912 0 0 0
273 1 10.501959506561269 21.77358087116962 10.970362525541265 0 -1 0
277 1 12.09173684795468 1.070762531682091 12.317138942096115 0 0 0
151 1 14.882274923858317 1.3675027153892019 9.826761999981624 0 0 0
276 1 13.387045236398153 2.6639856314743 11.079146463384484 0 0 0
281 1 16.371418075216376 21.64327118769061 10.94072460244476 0 -1 0
285 1 17.662707273082653 1.237883884821531 12.36318112127094 0 0 0
159 1 20.435788522147632 1.3239875871068296 9.419230510224187 0 0 0
284 1 19.017785687692246 2.637388052483027 10.911487260525282 0 0 0
134 1 1.4059585139009116 3.994790663264761 9.430533429888882 0 0 0
289 1 0.10306001293129999 5.2629647593479625 10.977228448830967 0 0 0
264 1 4.02782794478552 4.073243882259854 12.193567909710724 0 0 0
297 1 5.443443890031634 5.359869287228576 10.753137802981101 0 0 0
142 1 6.730022516688068 4.124143229002605 9.290564385866025 0 0 0
150 1 12.362777160499332 4.140921359951967 9.615211394011622 0 0 0
272 1 9.409096417733275 3.955021768676635 12.312457425252948 0 0 0
305 1 10.851050048909539 5.349297994313883 11.001704079282973 0 0 0
280 1 14.907234110149076 4.126376237622159 12.235745091336376 0 0 0
158 1 17.608612304409753 4.165720916589791 9.607173331148868 0 0 0
313 1 16.350677636447784 5.487302045151683 10.998842313794235 0 0 0
288 1 20.446841438317293 3.801550679474987 12.20886658963754 0 0 0
292 1 2.6440686503220117 8.137782199204405 10.813286471429011 0 0 0
293 1 1.4478191996025855 6.698029660218588 12.245550388970662 0 0 0
167 1 4.010640910865754 6.72502175856434 9.393981319093411 0 0 0
300 1 8.1986548115656 8.173740595718597 10.781815401728375 0 0 0
301 1 6.711128448565569 6.921726661806789 12.132178917609954 0 0 0
175 1 9.657071562757439 6.75802925540971 9.619976850056208 0 0 0
309 1 12.11724491507438 6.860184410158943 12.2886380943646 0 0 0
183 1 14.965180861968253 6.880186082629619 9.727404052861642 0 0 0
308 1 13.539110744399748 8.289211678980253 10.979762652549754 0 0 0
317 1 17.62258918167833 6.838695524669139 12.198036641289535 0 0 0
191 1 20.479029820201408 6.497333451671234 9.45762359732642 0 0 0
316 1 19.265729476944497 8.003341641387076 10.888885585790282 0 0 0
166 1 1.142635731441257 9.392658189371796 9.404972343370352 0 0 0
321 1 0.14908046012215945 10.96569250182542 10.774880679946207 0 0 0
325 1 1.5123921751932714 12.326828418154152 12.134967714161611 0 0 0
199 1 4.130722580715907 12.340991448260878 9.610524622023197 0 0 0
296 1 4.119930487273174 9.437065695286716 12.211021359786585 0 0 0
329 1 5.451999524574663 10.75799944896628 10.84455164723577 0 0 0
174 1 6.818902978667465 9.469343850237209 9.503146202345002 0 0 0
333 1 6.6727627232679385 12.06159885567625 12.172727464068648 0 0 0
182 1 12.313749385176573 9.406931618092925 9.449698195999725 0 0 0
207 1 9.63415866001592 12.137453730223749 9.393942796353397 0 0 0
304 1 9.400642929620133 9.656039657154016 12.005138245370155 0 0 0
337 1 10.888835565017198 10.773508082335082 10.782387747516534 0 0 0
341 1 12.392306667458483 12.360967141466979 12.379245334529298 0 0 0
215 1 15.242596821292992 12.271968402962043 9.555731982112635 0 0 0
312 1 15.210609725752299 9.541086605886253 12.176484051785675 0 0 0
190 1 17.78308226580515 9.256094534029831 9.508756427117335 0 0 0
345 1 16.592617282376303 10.84785016689762 10.794649437459574 0 0 0
349 1 17.798671325341818 12.251589382609986 12.385040438919946 0 0 0
223 1 20.386314333133452 12.257871885094188 9.401204235953179 0 0 0
320 1 20.508771906069207 9.457283373040404 12.201307179144287 0 0 0
198 1 1.4466628945541808 15.015045109511695 9.457296265781961 0 0 0
324 1 2.5992266851629635 13.675432587607997 10.597568046803588 0 0 0
328 1 3.6376193157607832 15.056175651810191 12.260465542337792 0 0 0
206 1 6.923855130958031 14.978084482729608 9.550626534988726 0 0 0
332 1 8.252140764388681 13.437061472730068 10.842267692647708 0 0 0
214 1 12.431978234343337 14.747104004975768 9.579153108921318 0 0 0
336 1 9.445860660218342 15.029866715532807 12.314177243166158 0 0 0
340 1 13.73629499584722 13.572241064941162 10.920051428447913 0 0 0
344 1 15.208820637427605 14.926547625800195 12.17848183500696 0 0 0
222 1 17.878963853070886 14.957258936491739 9.458543347756525 0 0 0
348 1 19.14984271755106 13.59274131453433 10.744986570694213 0 0 0
352 1 20.4107970420347 14.963630499087463 12.07578684961953 0 0 0
353 1 0.12359975126204725 16.48958448612463 10.90584000093596 0 0 0
357 1 1.4186094044709132 17.877457703032885 12.3119525798541 0 0 0
231 1 4.217005926687035 17.68829249035562 9.31634147283747 0 0 0
361 1 5.3742389950088985 16.31174707923354 10.89922073384374 0 0 0
365 1 6.769746839743498 17.560385771446438 12.281892521887388 0 0 0
239 1 9.654717085491013 17.67800995021845 9.52265934871715 0 0 0
369 1 10.928246324092944 16.1749125058723 10.921866227255245 0 0 0
373 1 12.162754842980219 17.58519342033554 12.24199764267537 0 0 0
247 1 14.965047915856209 17.67848758020761 9.618608617314738 0 0 0
377 1 16.605129619701337 16.24709153983587 10.823257404795754 0 0 0
381 1 17.733563851396653 17.6984473081446 12.2838532496207 0 0 0
255 1 20.509396722755152 17.70762936806854 9.628901184406248 0 0 0
230 1 1.4744214396489197 20.237286984435816 9.522090605057192 0 0 0
356 1 2.967664950654681 19.078122116392194 10.776036810273476 0 0 0
360 1 4.210868649380389 20.39968307669214 12.386660774738575 0 0 0
238 1 6.665646220019189 20.629755062242126 9.463576134280393 0 0 0
364 1 8.091262760676852 19.173142571708123 10.83433072087111 0 0 0
246 1 12.008278187218412 20.642486836710532 9.580540210791535 0 0 0
368 1 9.317247624563425 20.310525632642225 12.488337455330804 0 0 0
372 1 13.419567389654894 19.04434174201002 10.922599123122964 0 0 0
376 1 14.934543876754669 20.24398149311323 12.255544484225334 0 0 0
254 1 17.816902322172044 20.40262348046576 9.6041429963588 0 0 0
380 1 19.03459600248331 19.02301823243639 10.953436479610072 0 0 0
384 1 20.230201002107176 20.33930674682348 12.397706409628547 0 0 0
258 1 0.18276481525413432 2.7488192490362726 13.625847459588238 0 0 0
259 1 2.8224992106050113 21.762905928344367 13.486993775731689 0 -1 0
263 1 4.149312041875785 1.3888241829688275 15.005960805617331 0 0 0
266 1 5.479748174920858 2.8208786365705736 13.855861503740261 0 0 0
267 1 8.017173083315626 21.59047953685831 13.780939285889987 0 -1 0
271 1 9.32995312391392 1.277062030552526 15.243680571380931 0 0 0
274 1 10.751019424945413 2.647052393444473 13.738155820458537 0 0 0
275 1 13.629228965344716 21.663230101915246 13.648551818427727 0 -1 0
279 1 14.808577686965583 1.5240261225732825 14.968248657423386 0 0 0
282 1 16.268996176724574 2.794550045572986 13.781612927339182 0 0 0
283 1 18.93493672125121 21.62391946273177 13.743693812738499 0 -1 0
287 1 20.517003951261053 1.3235275429521507 15.059577891797945 0 0 0
262 1 1.515936831147757 4.172908298254308 14.857802112134678 0 0 0
291 1 2.9402888912979943 5.660619102449813 13.62623972842259 0 0 0
270 1 6.847688224510995 4.294028299657991 14.86855769934345 0 0 0
299 1 8.217331479795043 5.504389671020329 13.51861730373001 0 0 0
278 1 12.091539118288136 4.197713884299703 14.897847155689416 0 0 0
307 1 13.492855983865532 5.497986738483653 13.530762459260645 0 0 0
286 1 17.829974920413456 4.102983683921925 15.055076346003533 0 0 0
315 1 19.0633744574138 5.314449472266913 13.460916259497981 0 0 0
290 1 0.10758259260094634 8.216499428599061 13.52729851956971 0 0 0
295 1 4.353031261446803 6.957753539029269 15.12039215506148 0 0 0
298 1 5.588691407849241 8.265076497330814 13.561757482870028 0 0 0
303 1 9.5217765319563 6.927667058000931 14.763375915725668 0 0 0
306 1 10.748476535738302 8.435158630872992 13.48597192568638 0 0 0
311 1 15.092591762217532 6.926000298322935 14.917002947828058 0 0 0
314 1 16.511863856988278 8.212045011850055 13.639320928913094 0 0 0
319 1 20.457697843768997 6.7304759645954535 14.797999330236136 0 0 0
294 1 1.4216779702006659 9.533273225116055 14.854842282129448 0 0 0
323 1 2.7958312273691037 10.900617814511673 13.535022421990048 0 0 0
327 1 4.112658924050529 12.161862267029601 15.030729837499287 0 0 0
302 1 7.099277859177475 9.626911467656276 14.825597613822868 0 0 0
331 1 8.246459970519266 11.066927380819411 13.457107749972534 0 0 0
310 1 12.348923601636491 9.522589261569488 14.847093852732687 0 0 0
335 1 9.510888144706545 12.375192040500492 14.89538178690074 0 0 0
339 1 13.748715974141756 10.998313425156754 13.78404454366298 0 0 0
343 1 15.06567481989158 12.222140534932432 15.133446520745089 0 0 0
318 1 17.89384383521657 9.722229135989293 14.956706613543476 0 0 0
347 1 19.240909958843893 10.939372712904731 13.555084407841063 0 0 0
351 1 20.658105862686067 12.188880110794296 15.130567892307415 0 0 0
322 1 0.038441868017352006 13.746654478793179 13.48633507215881 0 0 0
326 1 1.367803707077354 15.002336414721269 14.939751541189326 0 0 0
330 1 5.193833548209335 13.61995444280881 13.52209960336977 0 0 0
334 1 6.529103397694701 15.198134821780243 15.002875614260715 0 0 0
338 1 10.971237607132801 13.656589684280437 13.73760897100379 0 0 0
342 1 12.361770970114087 14.909319692469188 15.149362824901633 0 0 0
346 1 16.381928433493385 13.6460442892121 13.869463724097452 0 0 0
350 1 17.987845453697464 14.966715008032367 14.98828486839404 0 0 0
355 1 2.5217643708041275 16.45288108122529 13.640475045579363 0 0 0
359 1 4.0117007425372035 17.664330282645974 15.065813383700863 0 0 0
363 1 8.20470165678694 16.372267921066047 13.693018900883214 0 0 0
367 1 9.37027440821301 17.60427702701063 15.111176911811377 0 0 0
371 1 13.689367353359476 16.080394198756878 13.547621234669451 0 0 0
375 1 14.846206822347378 17.451792257102223 14.94491119815809 0 0 0
379 1 19.18135627150805 16.241467315669286 13.554776431112973 0 0 0
383 1 20.39313548197046 17.698072755216977 15.005103584192325 0 0 0
354 1 21.69728559891828 19.20042773789331 13.70300841508342 -1 0 0
358 1 1.3682975430449706 20.44611536815171 14.91115735866023 0 0 0
362 1 5.434987742040109 18.912991338398232 13.636543459689015 0 0 0
366 1 6.527056606831839 20.40707022103209 15.128545399442698 0 0 0
370 1 10.860047085563197 18.93822092928463 13.679175426856817 0 0 0
374 1 12.20669805271527 20.28352215239356 14.953916132500057 0 0 0
378 1 16.317058991676703 18.92332273452996 13.587949554586936 0 0 0
382 1 17.527674613938654 20.48352045366739 15.076482231125713 0 0 0
385 1 0.05831705508821871 21.739515658821155 16.466397204888814 0 -1 0
388 1 2.6912489549854985 2.611604168752204 16.334449571357073 0 0 0
389 1 1.2329881586912486 1.465210290853406 17.85429144831882 0 0 0
393 1 5.200709692018079 0.01895549560427152 16.438747994780574 0 0 0
396 1 8.004937363500911 2.7849238338079343 16.415419227739793 0 0 0
397 1 6.534275683573425 1.417737301783323 17.73761357470468 0 0 0
401 1 10.747809569424247 21.70929783074643 16.322120006536384 0 -1 0
405 1 12.07703532220418 1.3993484329611678 17.763651933373307 0 0 0
404 1 13.419203944032775 2.788616632118882 16.149990937490436 0 0 0
409 1 16.056243407851685 0.01884295128799845 16.2873560459969 0 0 0
413 1 17.56160478233928 1.3816347874909103 17.63643926110136 0 0 0
412 1 19.04605415745326 2.69508920900935 16.31205994424688 0 0 0
417 1 21.63746576670706 5.396413481711468 16.277034219011195 -1 0 0
392 1 4.277981543640456 4.259834800464263 17.67923091169343 0 0 0
425 1 5.621733053224524 5.580666489454653 16.429290263543237 0 0 0
400 1 9.736184653116023 4.114415715494324 17.53162830995319 0 0 0
433 1 10.907112847580066 5.649138665431813 16.148503970996966 0 0 0
408 1 15.036687251275822 4.0273258990114025 17.484759443497683 0 0 0
441 1 16.49063481989973 5.576866709723491 16.3096636505009 0 0 0
416 1 20.401712719681274 4.078477776288909 17.644349853230633 0 0 0
420 1 2.5920509105978784 8.156326823119167 16.331480535713585 0 0 0
421 1 1.343675656005657 6.662775947743357 17.665744258665992 0 0 0
428 1 8.418387717679733 8.353503087648512 16.261682852218524 0 0 0
429 1 7.036464704684827 7.042090809091842 17.606443043403093 0 0 0
437 1 12.365347911491744 6.954433863879636 17.606550593285448 0 0 0
436 1 13.731753688168967 8.212406569099377 16.16200129179947 0 0 0
445 1 17.798191239228224 6.859849548271178 17.64436509793311 0 0 0
444 1 19.251616010386858 8.136965361753786 16.241147340802637 0 0 0
449 1 0.03387008012992424 10.783631369617288 16.41551015131248 0 0 0
453 1 1.2660216170485097 12.27054257901749 17.735380932697144 0 0 0
424 1 3.9769620147633926 9.480630700078947 17.620924050488753 0 0 0
457 1 5.61709651077774 10.741504935354799 16.342101676569516 0 0 0
461 1 6.84767163663865 12.187678407743059 17.72958707349813 0 0 0
432 1 9.609884470046445 9.720167239907706 17.62413406774627 0 0 0
465 1 10.788782871060645 10.788755339457774 16.126525767321976 0 0 0
469 1 12.06669749017702 11.917211818050058 17.775920707921152 0 0 0
440 1 14.932629246529949 9.486939338405003 17.755204602511007 0 0 0
473 1 16.364882914583482 10.823768571761303 16.436235244266644 0 0 0
477 1 17.79117936199314 12.421114690650725 17.650235685735662 0 0 0
448 1 20.5689718997795 9.41334802348327 17.731298015189942 0 0 0
452 1 2.623529331048882 13.486261673905263 16.138052534624105 0 0 0
456 1 3.760827852110477 14.765700075622652 17.705913000920777 0 0 0
460 1 8.03370688529097 13.698213411450917 16.27715357472945 0 0 0
464 1 9.279150343221772 14.831041955359785 17.705863959596737 0 0 0
468 1 13.564428743684626 13.426243100096205 16.429786788321298 0 0 0
472 1 14.7958175462748 15.003866635906366 17.796745558023943 0 0 0
476 1 19.22911565991952 13.718094610830498 16.31963868182456 0 0 0
480 1 20.467875896713736 15.043360930991893 17.78660681968313 0 0 0
481 1 0.014263990944973048 16.364936944715893 16.275565112406504 0 0 0
485 1 1.3442084938922725 17.773060399538423 17.75375808127125 0 0 0
489 1 5.2297260710485105 16.271087997886923 16.458495194094933 0 0 0
493 1 6.615333211537074 17.815208722183726 17.592307866580242 0 0 0
497 1 10.795523129811636 16.153992324812478 16.390466901789 0 0 0
501 1 12.184276220739116 17.405272099000292 17.786362821013366 0 0 0
505 1 16.163549513366583 16.166828499390828 16.337524607061162 0 0 0
509 1 17.67574305319901 17.513906533038746 17.72907523352164 0 0 0
484 1 2.631520655574528 19.127866478909816 16.413008917780427 0 0 0
488 1 3.71332539034476 20.543370592066427 17.83752956772155 0 0 0