LAMMPS data file via write_data, version 29 Aug 2024, timestep = 10000000, units = metal

512 atoms
2 atom types

0 21.78415134 xlo xhi
0 21.78415134 ylo yhi
0 21.78415134 zlo zhi

Masses

1 28.0855
2 12.011

Atoms # atomic

1 1 21.71122215982274 0.0733034478120677 0.009266481168127432 -1 0 0
2 1 21.638755777227804 2.746722438906094 2.8506994993229893 -1 0 0
3 1 2.4694987511271913 0.060115759091597595 2.858883683583965 0 0 0
4 1 2.5403602157911225 2.7862047217895727 0.2274402380645146 0 0 0
5 1 1.2415321908183807 1.2658001347562753 1.4507501441654858 0 0 0
9 1 5.4358361323688165 0.12805144995387457 0.1686825397041505 0 0 0
10 1 5.459205695606246 2.727383589380768 2.865802935998261 0 0 0
11 1 8.095373005626646 0.20741978524915528 2.6196244948976366 0 0 0
12 1 8.49415394101464 2.716084371856403 0.11261909728043303 0 0 0
13 1 6.996276306816909 1.6293179812482503 1.4652499230973246 0 0 0
17 1 10.903931948488106 0.06619462581735755 0.16846794404357074 0 0 0
18 1 11.164865939293405 2.7757273840722756 2.8634911683905977 0 0 0
21 1 12.352463959225743 1.5474913265930734 1.248583891300859 0 0 0
19 1 13.819928554406088 21.75902164519971 2.7845471239234287 0 -1 0
20 1 13.75241592967204 2.8857220301533424 21.568735332325925 0 0 -1
25 1 16.227697105660894 0.09222290961981883 21.659225059937164 0 0 -1
26 1 16.59110845372476 2.8053227687301754 2.706384566013982 0 0 0
29 1 17.821119324725082 1.0716528616876881 1.2952670005912466 0 0 0
27 1 19.161988876545045 21.42162550622239 2.8469178680447307 0 -1 0
28 1 18.969019638659102 2.584117388519767 21.700921611769214 0 0 -1
33 1 0.07932188388301796 5.501406926086216 0.027356834316384568 0 0 0
35 1 2.866099925586054 5.168183079638105 2.7364222313011415 0 0 0
8 1 4.143173411545636 4.11178298168741 1.4041388197202898 0 0 0
41 1 5.51253937368472 5.275829616910864 21.740125895747948 0 0 -1
43 1 8.261683254915075 5.288558593926089 2.787360864543882 0 0 0
16 1 9.756786185118601 4.072354038761653 1.50906615975029 0 0 0
49 1 10.966962014524103 5.568989095018458 0.07934444713702131 0 0 0
24 1 15.101532439727862 4.27219121707351 1.2790450244354072 0 0 0
51 1 13.861174586451815 5.515994953324699 2.739434096760723 0 0 0
57 1 16.545423687229203 5.704157694274017 0.041070616274710876 0 0 0
32 1 20.535627906000315 3.9754937672717863 1.2987010591623702 0 0 0
59 1 19.111697310874092 5.3720938671851926 2.525253379790405 0 0 0
34 1 21.647155330748404 8.143795098066468 2.559543089322055 -1 0 0
36 1 2.760613239462302 8.185900510905261 21.67320123576564 0 0 -1
37 1 1.6217872123870682 6.730620804791044 1.3741469247940965 0 0 0
42 1 5.4258978785869685 8.147599113889214 2.855701039229274 0 0 0
44 1 8.303695696013841 8.178260215844741 21.776352354356366 0 0 -1
45 1 6.825642520770417 6.5613150556424085 1.4690790459405596 0 0 0
50 1 10.863351449308404 8.081768889495045 2.586781583750473 0 0 0
53 1 12.459211938601573 6.822732567881257 1.311976389945238 0 0 0
52 1 13.694805579350346 8.172197178112647 21.721716825998822 0 0 -1
58 1 16.25227141298292 8.197067622782908 2.909877635773262 0 0 0
61 1 17.759338254506947 6.98884809072875 1.5204293462605567 0 0 0
60 1 18.95299487554813 8.073391846973035 21.668171335118423 0 0 -1
65 1 21.704059422458325 10.982982737368427 0.10732536361954777 -1 0 0
67 1 2.731804817854287 10.897390701043902 2.6663226678563823 0 0 0
69 1 1.3539934951548904 12.29868553075746 1.4885385523061962 0 0 0
40 1 4.265072503884676 9.418009573070009 1.3099147373810835 0 0 0
73 1 5.453643896341803 11.080796030336716 21.733435250067902 0 0 -1
75 1 8.42958991027645 10.881524648623706 2.592737004690636 0 0 0
77 1 6.920128347177297 12.32832650665439 1.2404183201000138 0 0 0
48 1 9.69473667551628 9.414059790203513 1.2951768274126767 0 0 0
81 1 10.777548460985189 11.026852762118173 21.616536433366086 0 0 -1
85 1 12.305718727408806 12.280514950315956 1.1923680309216727 0 0 0
56 1 15.032746111443323 9.260414490324097 1.3053281330023985 0 0 0
83 1 13.696305749278656 10.812826300607636 2.5373600516429895 0 0 0
89 1 16.242670735855654 10.814566048967688 0.06395931558472952 0 0 0
93 1 17.59163026428559 12.1317743003943 1.5149712113182832 0 0 0
64 1 20.41080178428598 9.290035076584816 1.126213753212321 0 0 0
91 1 19.039890955299764 10.762016537087568 2.658135233436436 0 0 0
66 1 0.020209809846186463 13.597674420753911 2.7706266366198222 0 0 0
68 1 2.6222117838815953 13.700737221314789 21.638689934579865 0 0 -1
72 1 3.902352603162499 15.03229812937184 1.3309775012059544 0 0 0
74 1 5.246313852234973 13.567955736931104 2.5236926784672984 0 0 0
76 1 8.048048193586729 13.880318638920063 21.7487594771075 0 0 -1
80 1 9.651416030839684 15.193517308563829 1.4248578879337728 0 0 0
82 1 11.01088879226175 13.681717862818111 2.771305990303271 0 0 0
84 1 13.498614206487288 13.980338251902975 0.04470796132057442 0 0 0
88 1 14.921035062945023 14.97879100746831 1.6992923862569347 0 0 0
90 1 16.284783358562578 13.689085549633845 3.1155492936657248 0 0 0
92 1 18.910147673643717 13.382037180504879 0.21204617314207594 0 0 0
96 1 20.308379834482363 14.974093341312221 1.3617952997646996 0 0 0
97 1 21.637555931357262 16.348209602598814 0.0881050745580318 -1 0 0
99 1 2.615536473884735 16.399584132766382 2.7792954423717364 0 0 0
101 1 1.2952690026154947 17.77729518933859 1.2959008204116347 0 0 0
105 1 5.1127205445289015 16.54430890453284 21.735244741056153 0 0 -1
107 1 8.241405592083995 16.33829171505645 2.831126778821119 0 0 0
109 1 6.757756915955848 17.736271288314857 1.4424500032327792 0 0 0
113 1 10.9155193483918 16.56794206173103 21.77876492642199 0 0 -1
117 1 12.190015196102767 17.910488098618472 1.4102504310223722 0 0 0
115 1 13.515156969206854 16.43970540749871 2.7299681832593286 0 0 0
121 1 16.21261489165244 16.111222128544632 0.16670564695733237 0 0 0
125 1 17.82570774592406 17.53328524132728 1.1813745779113725 0 0 0
123 1 18.954112172167616 16.255772480895917 2.833317564668047 0 0 0
98 1 21.730522281436333 18.785686902404723 2.7888717473996008 -1 0 0
100 1 2.643560662968792 19.369585788412888 0.18687683340251016 0 0 0
104 1 4.050600328113927 20.762759576134748 1.5743000553143263 0 0 0
106 1 5.389156789423088 19.251535172054858 2.7157132133727964 0 0 0
108 1 8.130946299627306 19.236622873130667 0.194386285984399 0 0 0
112 1 9.35404745623641 20.517649412829194 1.5313475316842888 0 0 0
114 1 10.62712059200954 19.042310044868408 2.704807134224611 0 0 0
116 1 13.591623418753986 19.038705391034675 0.014799019421202339 0 0 0
120 1 15.157769126050692 20.43338566172719 1.2697707241187448 0 0 0
122 1 16.349007591582016 18.903246226520675 2.642458535281213 0 0 0
124 1 19.158307192774195 18.97232728983152 21.663933461266424 0 0 -1
128 1 20.49529794621171 20.27435948220085 1.2812087550483475 0 0 0
129 1 21.74644718494412 21.67723456805578 5.498514418452098 -1 -1 0
132 1 2.8532208739934584 2.8019864381489943 5.506159769272792 0 0 0
7 1 3.9800381789401933 1.4401594062794418 3.9438151372324084 0 0 0
137 1 5.4590324038279485 0.20671249586179868 5.450656634038542 0 0 0
140 1 8.300426067019437 2.79847269627765 5.43083474379437 0 0 0
15 1 9.50282679856449 1.482720073603094 3.9897138951911595 0 0 0
145 1 10.935522237371902 0.1589006444373908 5.40954872990528 0 0 0
23 1 15.194019961784129 1.4087112880481554 3.991933656229078 0 0 0
148 1 13.714587800607589 2.8921515272110434 5.492872063867719 0 0 0
153 1 16.486984534304238 0.07398205566961796 5.403166497924531 0 0 0
31 1 20.246893911358853 1.1349467144842413 4.112094868345425 0 0 0
156 1 19.10056554700592 2.6826587282960395 5.5336126797846585 0 0 0
6 1 1.3395180782202336 3.94130725661673 4.195782489114748 0 0 0
161 1 21.63244483621607 5.407481218778664 5.261921817560591 -1 0 0
169 1 5.58113693942895 5.400854585775517 5.597420256404933 0 0 0
14 1 6.88006315485705 4.1228249419950584 4.211520380458369 0 0 0
22 1 12.491742721647464 4.1939452015804095 3.998526182344913 0 0 0
177 1 11.018051366076262 5.581331975686775 5.289336408702096 0 0 0
30 1 17.90846228032871 4.169173958474905 4.185586174834778 0 0 0
185 1 16.26370801558195 5.401982901465957 5.474226762381214 0 0 0
164 1 2.7106126866946525 8.073245178994105 5.462299191188858 0 0 0
39 1 4.2465400549171575 6.642961323599911 4.130105810132514 0 0 0
172 1 8.285803464466037 8.339011084883488 5.248054304093514 0 0 0
47 1 9.534169588944039 6.789650510269398 3.913185679148859 0 0 0
55 1 15.113669968911138 6.681887241062597 4.151361410006965 0 0 0
180 1 13.600894912222643 8.158707185510472 5.3790231953277505 0 0 0
63 1 20.282888504694895 6.901577582784824 4.00613685599572 0 0 0
188 1 19.02033843791697 8.118973775671506 5.56491136465172 0 0 0
38 1 1.3564429984284476 9.45703129131566 3.976339825710718 0 0 0
193 1 0.013921706297563995 10.831557172148246 5.426058636925218 0 0 0
71 1 4.107149485174402 12.25605154229275 4.014089376825043 0 0 0
201 1 5.442085898348096 10.788254795010353 5.390077922344316 0 0 0
46 1 6.854266678009791 9.613667332759778 3.9669291484063147 0 0 0
54 1 12.196629044415461 9.366002723890006 3.987864515305954 0 0 0
79 1 9.475126850739867 12.206051620182985 3.9911794122524342 0 0 0
209 1 10.923490967624398 10.80235031448759 5.510067734436299 0 0 0
87 1 14.870161924136166 12.132951066378512 4.129835208789852 0 0 0
62 1 17.65918428185088 9.569067619688068 4.245080001886512 0 0 0
217 1 16.36089876929912 10.778872501944804 5.437296382639177 0 0 0
95 1 20.367171802942494 12.230353076765612 4.144410324383337 0 0 0
70 1 1.4808242322375758 14.91428455391076 4.1642561980275135 0 0 0
196 1 2.816705587491711 13.63159687037834 5.437525042201862 0 0 0
78 1 6.831224945413667 14.82603884649939 4.036832364670367 0 0 0
204 1 8.0774770339792 13.387757847813404 5.528599951269794 0 0 0
86 1 12.24583681335946 15.051795701107745 4.144284080673729 0 0 0
212 1 13.582346013329902 13.648640734453986 5.464373414475283 0 0 0
94 1 17.58883715123755 15.09726021543939 4.257680320238783 0 0 0
220 1 18.915830182840367 13.704189906016694 5.6097385717847095 0 0 0
225 1 0.12739848645448149 16.32417276034854 5.537595251646252 0 0 0
103 1 4.188093000500183 17.73817888936725 4.020030192495636 0 0 0
233 1 5.604744747105639 16.350747109983505 5.291264972393819 0 0 0
111 1 9.459652393449073 17.671036387930997 4.227000384969116 0 0 0
241 1 10.823081154585063 16.24444434493567 5.506538062551798 0 0 0
119 1 14.99908450122491 17.663587543801793 4.197134902308665 0 0 0
249 1 16.277367666210747 16.421916338359285 5.545653022101784 0 0 0
127 1 20.338887868062503 17.67791459752747 4.136385901199219 0 0 0
102 1 1.1673797129972503 20.344126059774997 4.02507219946431 0 0 0
228 1 2.711977723585639 19.19236331109331 5.6019355311982295 0 0 0
110 1 6.593562650467653 20.644086638177775 3.92397921513829 0 0 0
236 1 7.902245009233799 19.13612112748738 5.198664220622067 0 0 0
118 1 12.331777652407013 20.235222901871957 3.8145720217724226 0 0 0
244 1 13.654001845289269 19.102267434667734 5.372855817286309 0 0 0
126 1 17.700091590023156 20.285347518924176 4.144283914530022 0 0 0
252 1 19.068623491739842 18.894316435530467 5.586232768475801 0 0 0
130 1 21.603571672819047 2.6488241906707417 8.276504523574093 -1 0 0
131 1 2.379546812628668 0.13896162042729815 7.998987552481913 0 0 0
133 1 1.202954014324193 1.5672650647613882 6.647724076026149 0 0 0
138 1 5.458137823140132 2.6794472213504075 8.093959790542124 0 0 0
139 1 8.27372810979547 21.66428950938241 7.844522456334819 0 -1 0
141 1 6.795163656818095 1.4559791151340802 6.648517741669296 0 0 0
146 1 11.059444409577127 2.928699706287443 8.26793275320311 0 0 0
149 1 12.267415269747076 1.5197182255450257 6.859430549344034 0 0 0
147 1 13.556322004788877 0.08716353468807725 8.268672148273629 0 0 0
154 1 16.4282751015188 2.549543682171553 8.286628186971218 0 0 0
157 1 17.803605979425768 1.2942279525014806 6.946782177312099 0 0 0
155 1 18.987706309342844 21.50544102668506 8.297718697069698 0 -1 0
163 1 2.7374020942767907 5.474977702821357 8.154635565999694 0 0 0
136 1 4.1855261344810915 4.031591944236497 6.7949181884661165 0 0 0
171 1 8.114325329738241 5.569548416218799 8.0799339155671 0 0 0
144 1 9.706648357205538 4.363552615566717 6.835261946262318 0 0 0
152 1 15.284189669086874 4.109820191906785 7.018092621776908 0 0 0
179 1 13.501669138500963 5.556491520071206 8.027194461990707 0 0 0
160 1 20.50210360365754 4.071195102862857 6.851448648930154 0 0 0
187 1 19.05616012633943 5.577507733102979 8.229126380617435 0 0 0
162 1 0.06653316120392579 8.253879316169106 8.10762825915969 0 0 0
165 1 1.4571659058593542 6.740972811976258 6.69988574093178 0 0 0
170 1 5.34437219253066 8.21381269926921 8.188783242643664 0 0 0
173 1 6.636044245813207 6.997775453785578 6.711107896224843 0 0 0
178 1 10.928579665306092 8.273092603878744 8.10717904220622 0 0 0
181 1 12.17253374878069 6.8918855482002614 6.705754251105418 0 0 0
186 1 16.217604024297007 8.331051838969275 8.222856439415775 0 0 0
189 1 17.578494852400098 6.786284114746445 6.935388521151698 0 0 0
195 1 2.778637363345192 10.951115019285476 8.173547325376319 0 0 0
197 1 1.2993254918045032 12.168584092055305 6.721950030162846 0 0 0
168 1 4.0878593631097715 9.54966289468408 6.846613164783784 0 0 0
203 1 8.044517872457364 10.804335725947544 8.559249985533153 0 0 0
205 1 6.677119840548952 12.15207085013115 7.052413867177306 0 0 0
176 1 9.588122277800323 9.537656240829303 6.952276870097934 0 0 0
213 1 11.992510588315458 12.394836339298687 6.859488302972833 0 0 0
184 1 14.7280560705345 9.666256764810337 6.711866954432651 0 0 0
211 1 13.360129273321762 11.128484306983925 8.14721163788106 0 0 0
221 1 17.73807522866032 12.079090470179265 6.940905000431609 0 0 0
192 1 20.325127590524517 9.320751507085628 6.6768166861526215 0 0 0
219 1 19.32215248267017 10.859435681701576 8.264987302222805 0 0 0
194 1 0.09572766370764232 13.709506879352071 8.190338572210537 0 0 0
200 1 4.319609342250775 14.963990391927318 6.831573757021471 0 0 0
202 1 5.4163422716639165 13.465540106753892 8.303421493866788 0 0 0
208 1 9.483426170930178 14.933281479704329 6.7784017043974085 0 0 0
210 1 10.729934323678288 13.618496672637717 8.345681714763332 0 0 0
216 1 15.18406868929896 14.814864415450277 6.717250260213595 0 0 0
218 1 16.495829130269875 13.701470826693399 8.276575106924883 0 0 0
224 1 20.46233301380313 14.978536926756416 6.795553346243289 0 0 0
227 1 2.950814717258305 16.310439237704216 8.104559740194539 0 0 0
229 1 1.548427061997742 17.721454210357454 6.798853708075288 0 0 0
235 1 8.157079682348664 16.28487804022906 7.919375329915736 0 0 0
237 1 6.630986542808557 17.71009645433703 6.673986983315276 0 0 0
245 1 12.267946250946842 17.71954972100594 6.618210713485853 0 0 0
243 1 13.707833277975897 16.19434527664907 8.022538850026947 0 0 0
253 1 17.635360479474834 17.533392250882343 7.032194382122098 0 0 0
251 1 19.170971548718956 16.176126341985842 8.209840389067077 0 0 0
226 1 0.0895531646397069 18.88148928077895 8.30438655865225 0 0 0
232 1 3.942321104087851 20.759145461745955 6.809121081569412 0 0 0
234 1 5.225959485394507 19.168614288336332 7.995510063149792 0 0 0
240 1 9.529474423129168 20.41147254704329 6.6386210962432814 0 0 0
242 1 10.896639983268294 18.997783464907133 8.051285019605588 0 0 0
248 1 15.012710952308401 20.618988665022847 6.82002172508702 0 0 0
250 1 16.511562319405854 19.16682740869104 8.137036420398385 0 0 0
256 1 20.363622423628364 20.266121616358838 6.943879450636244 0 0 0
257 1 21.69607471953154 21.66681276929072 10.918688920340822 -1 -1 0
260 1 2.465493209325888 2.493664014771039 10.827529111506632 0 0 0
261 1 1.3806382409771243 1.170105952577844 12.207867321063322 0 0 0
135 1 3.964932021705849 1.1713161151758122 9.479767832321933 0 0 0
265 1 5.389119639385893 21.65042839939368 10.733112557592225 0 -1 0
268 1 8.105850449383507 2.442756399509324 10.647932989347229 0 0 0
269 1 6.570397093692024 1.302204658997981 12.14881913317816 0 0 0
143 1 9.602707989278175 1.2460644368605451 9.447911087972502 0 0 0
273 1 10.872335138051671 21.537134191373323 10.975600261239777 0 -1 0
277 1 12.38028411459023 1.1698988467304228 11.949764649356954 0 0 0
151 1 15.09803303987792 1.2736031804662098 9.601853028669026 0 0 0
276 1 13.728627079377443 2.4686147968767487 10.929088578591363 0 0 0
281 1 16.408867511381025 21.72020535645765 10.910436570203164 0 -1 0
285 1 17.702394756156767 1.4260526301922252 12.312554841058255 0 0 0
159 1 20.29673400636083 1.300489607570216 9.676243786069806 0 0 0
284 1 19.010083841582194 2.8569476191504313 10.81688611609378 0 0 0
134 1 1.30426794729269 4.10664051434921 9.481790260205624 0 0 0
289 1 0.10309196986128451 5.37415046644555 11.012223040838322 0 0 0
264 1 3.7428654256712885 4.11807606135511 12.135359325169855 0 0 0
297 1 5.50931905986021 5.437770074467705 10.849530165094611 0 0 0
142 1 6.73203709040979 4.052770993094696 9.374259524098672 0 0 0
150 1 12.280060071886094 4.115579711940105 9.723123201212374 0 0 0
272 1 9.39203229399286 3.921246756429043 12.015258998034644 0 0 0
305 1 10.754336773616156 5.4132096097057065 10.733847422275558 0 0 0
280 1 15.002059360024045 3.8769015250362453 12.203326272773655 0 0 0
158 1 17.741809324027567 4.125815387360461 9.41928252923706 0 0 0
313 1 16.640944839417294 5.515162194169047 11.000799395191606 0 0 0
288 1 20.26391695686788 4.170434700429226 12.29649499169446 0 0 0
292 1 2.6209397243230264 8.151633761395024 10.993982624080397 0 0 0
293 1 1.1952944161843733 6.856920081709154 12.276729180533659 0 0 0
167 1 4.11484377099631 6.956892720852898 9.655518656201764 0 0 0
300 1 8.281746347713819 7.999176945938175 10.920425688758513 0 0 0
301 1 6.951037650069233 6.719288244321699 12.422888090572545 0 0 0
175 1 9.498400324509847 6.890716588017423 9.219441755639783 0 0 0
309 1 12.125349195570934 6.8483757250566715 11.97164931245226 0 0 0
183 1 15.193978054078395 6.765978528977309 9.657727995869616 0 0 0
308 1 13.605401960246878 8.349747915048976 10.876039148730724 0 0 0
317 1 17.665938900961486 6.9417532571554315 12.32675727541447 0 0 0
191 1 20.567605195321274 6.729489229235415 9.513333848705944 0 0 0
316 1 19.14251135384861 8.032512885887229 11.073122953247145 0 0 0
166 1 1.4196297690149748 9.486735020179106 9.56502780303738 0 0 0
321 1 21.600271973111724 10.84831102243832 11.018874133603372 -1 0 0
325 1 1.1830734820920432 12.293506818616788 12.217803250985408 0 0 0
199 1 3.9505146351930223 12.217119571618836 9.808052635258075 0 0 0
296 1 4.108958435213222 9.541483012620684 12.16323255791237 0 0 0
329 1 5.742742829179843 10.83579712282731 10.73709913657517 0 0 0
174 1 6.756438824808998 9.149082960931993 9.5834208583177 0 0 0
333 1 6.842125919953783 12.262597501933113 12.32787604766166 0 0 0
182 1 12.181433097219072 9.641064252164004 9.680643844959372 0 0 0
207 1 9.566088404274057 12.310519189221498 9.75112215987035 0 0 0
304 1 9.611225389045867 9.387958020460333 12.344369799422454 0 0 0
337 1 11.113250082952673 11.048058535020694 11.11911545669442 0 0 0
341 1 12.446942422412926 12.268044027489172 12.40451590387434 0 0 0
215 1 14.989016938832217 12.351901731436543 9.447375976258842 0 0 0
312 1 14.919811694476255 9.285261967405983 12.373254262421568 0 0 0
190 1 17.780017819381623 9.521652989738914 9.662589852689441 0 0 0
345 1 16.24619890161626 10.737546775369681 11.01441641954548 0 0 0
349 1 17.269564288123245 12.200404994488103 12.461292980211754 0 0 0
223 1 20.40870856565094 12.326687278205837 9.488040218400997 0 0 0
320 1 20.28337952526298 9.500296738015724 12.46906728368661 0 0 0
198 1 1.5557580093275174 15.013708179486636 9.487683067330702 0 0 0
324 1 2.63231255677745 13.73837258276437 11.168893678503279 0 0 0
328 1 4.0424466069064895 14.976280461803738 12.31954274885846 0 0 0
206 1 6.958222203669336 15.025408636947864 9.58600887264368 0 0 0
332 1 8.0355323517696 13.66790146389073 10.932320854302581 0 0 0
214 1 12.243787064899612 14.936427248002268 9.46789174528508 0 0 0
336 1 9.723499036089562 15.013687466061077 12.149194036457605 0 0 0
340 1 13.651267067693064 13.751856846555466 10.840496856938188 0 0 0
344 1 14.853093507171543 15.255007370922778 11.960240541214525 0 0 0
222 1 17.88404328503602 14.930668823601788 9.657337009448407 0 0 0
348 1 19.08158568958518 13.492152602500202 10.993175707311172 0 0 0
352 1 20.393966317215575 14.884656890627696 12.28937617952211 0 0 0
353 1 0.06082343149586882 16.02236067483321 10.958697356648292 0 0 0
357 1 1.2192871901668294 17.630732884270063 12.200332198444457 0 0 0
231 1 4.120246409403866 17.642201052269048 9.542204798441892 0 0 0
361 1 5.426132290256597 16.288382998590155 11.008158676431394 0 0 0
365 1 6.7487156530232895 17.80666552093916 12.103909951652035 0 0 0
239 1 9.421031062650227 17.626583224134507 9.464147575635737 0 0 0
369 1 10.82546272573676 16.445465403791786 10.813754568325837 0 0 0
373 1 12.14481453253968 17.815047215627704 12.243998613215364 0 0 0
247 1 14.87050500548553 17.756205413534186 9.201442792597197 0 0 0
377 1 16.275880723307598 16.451037072903702 10.693736895834785 0 0 0
381 1 17.65046198480166 17.808365268340133 12.11413605328446 0 0 0
255 1 20.34463017569878 17.60031466237088 9.602044447862 0 0 0
230 1 1.3271502210742632 20.394000236500037 9.486174816604901 0 0 0
356 1 2.772161228187974 18.95438113244328 10.95701005643351 0 0 0
360 1 4.139096508396893 20.3556241337265 12.190133746610966 0 0 0
238 1 6.6059679400639055 20.225561646573695 9.243878883237457 0 0 0
364 1 7.906646598161067 18.961185913372308 10.695596217754598 0 0 0
246 1 12.215898998744374 20.436829337445218 9.479104781472966 0 0 0
368 1 9.306568008878493 20.24030729621632 12.135259335427778 0 0 0
372 1 13.544127562339208 18.909245701425064 10.73840907574643 0 0 0
376 1 15.07837362122573 20.248328886879964 12.033164336181256 0 0 0
254 1 17.745762645075846 20.341668634303343 9.702609774179722 0 0 0
380 1 19.38986592942197 18.983020466236077 11.077293761823867 0 0 0
384 1 20.531700440868214 20.395118650656087 12.449672878637937 0 0 0
258 1 21.67514218239274 2.6497479453947483 13.530540476864802 -1 0 0
259 1 2.912944952609392 0.03319354581652149 13.584534900285343 0 0 0
263 1 4.238356958433733 1.2505879785182286 15.051006752121289 0 0 0
266 1 5.176065717462959 2.6477269927936615 13.526725984007811 0 0 0
267 1 8.122345741617046 21.729036676309626 13.468065603666904 0 -1 0
271 1 9.616811418549673 1.1983116465789927 14.815275954110813 0 0 0
274 1 11.015346875862283 2.6842259676015714 13.32621975811362 0 0 0
275 1 13.76356829479637 21.744065118516236 13.471642298565197 0 -1 0
279 1 15.078670988123335 1.3470915542338557 14.882618705870371 0 0 0
282 1 16.32575109647628 2.7891436843389084 13.630261038650891 0 0 0
283 1 18.906770646140046 0.013312645585911383 13.847748060440507 0 0 0
287 1 20.478493116207524 1.38721353512325 15.169320433939914 0 0 0
262 1 1.272154292754357 3.9197781933880376 14.979277888398052 0 0 0
291 1 2.4250884088223867 5.376771732557677 13.459932667119967 0 0 0
270 1 6.489197186755506 3.983405643679415 14.876694033931132 0 0 0
299 1 8.140756555457726 5.134715347231954 13.703962485221645 0 0 0
278 1 12.283160654827638 4.0435796756154545 14.75915333442976 0 0 0
307 1 13.710569875562708 5.444064508224711 13.510826525115633 0 0 0
286 1 17.80447498474694 4.13415070980681 15.146880694551374 0 0 0
315 1 19.118776232576746 5.507782680241097 13.725165310242499 0 0 0
290 1 21.530862664606868 8.079488238218792 14.007407832383494 -1 0 0
295 1 3.7878672014739685 6.711451398098674 14.77891415951782 0 0 0
298 1 5.312034823974347 8.064306578597828 13.640206806555746 0 0 0
303 1 9.768596895794017 6.5935478546742905 14.969073444325614 0 0 0
306 1 10.89556747648236 7.943117283430713 13.466028861503531 0 0 0
311 1 14.716296380164588 6.772264130456752 15.110369441674285 0 0 0
314 1 16.20129659942349 8.145179787519067 13.786678452789234 0 0 0
319 1 20.237160098543736 6.739789672064904 15.210318211251103 0 0 0
294 1 1.3828236878870925 9.43068471815142 15.046086227770873 0 0 0
323 1 2.6232355035954873 10.986806197782103 13.587920689526948 0 0 0
327 1 4.052829289528799 12.26187385842064 14.88635243231961 0 0 0
302 1 6.853487787265844 9.338015286428293 14.926492054198885 0 0 0
331 1 8.281946874379363 10.773335092963155 13.654486052968766 0 0 0
310 1 12.132434791228624 9.252492006190678 15.030272185451837 0 0 0
335 1 9.686449294918543 12.04595029841883 15.045333728394407 0 0 0
339 1 13.511757273963658 10.740562408684344 13.864202391690077 0 0 0
343 1 14.745995232407923 12.268246414572394 15.248580001401015 0 0 0
318 1 17.542931545405775 9.512783565771226 15.130328157176798 0 0 0
347 1 18.757584154053397 10.911777204302842 13.627662324274864 0 0 0
351 1 20.235186734825355 12.184695040284174 14.95768635893937 0 0 0
322 1 21.704123637495616 13.628365307080289 13.750023053346258 -1 0 0
326 1 1.2930740898468793 15.035663260445528 14.993069616288405 0 0 0
330 1 5.456850809777542 13.549731636440171 13.539462397620301 0 0 0
334 1 6.7921506061026875 15.028913961031884 14.698265793446076 0 0 0
338 1 11.053347688900864 13.670638404105928 13.62212475035587 0 0 0
342 1 12.277372934045415 15.12497297322269 14.793184621200119 0 0 0
346 1 16.111485583592668 13.893213490302957 13.493558158172013 0 0 0
350 1 17.782480546385845 15.237465233544636 14.806974746654305 0 0 0
355 1 2.723341734765145 16.352866581090705 13.608559088868814 0 0 0
359 1 4.100137870002352 17.758791306656285 14.977066015404697 0 0 0
363 1 8.27286179423389 16.481094330961135 13.35482859032533 0 0 0
367 1 9.38256053775112 17.68409667990995 14.84629577684536 0 0 0
371 1 13.497446023981004 16.61911520600169 13.549891173955672 0 0 0
375 2 15.067194044108662 17.724420508357287 14.900526343646018 0 0 0
379 1 19.176907827263577 16.50895612650172 13.41231310760467 0 0 0
383 1 20.641856683809955 17.68612412300885 14.753310092822726 0 0 0
354 1 0.11184985872534825 19.196690912563593 13.624803591124445 0 0 0
358 1 1.3408500996853883 20.49952357460684 14.942648669054579 0 0 0
362 1 5.470395074618842 19.10036278250989 13.584746683777052 0 0 0
366 1 6.947719101179532 20.18260990624416 14.94262408718785 0 0 0
370 1 10.778962285190506 19.16925041082529 13.53349508848731 0 0 0
374 1 12.403259772890795 20.508292018532007 14.900735165003999 0 0 0
378 1 16.438669247346205 19.08333636344303 13.427998022322328 0 0 0
382 1 17.763323042248196 20.281192286006505 15.101700944119745 0 0 0
385 1 0.15266736233002268 0.045023982692046445 16.489337703118668 0 0 0
388 1 2.7866743508279943 2.6367740819007373 16.32886594563531 0 0 0
389 1 1.3864560939901969 1.38577047350609 17.723468809273033 0 0 0
393 1 5.556823941986315 21.66969612180893 16.322965214244093 0 -1 0
396 1 8.07239530374817 2.6163047797721743 16.02088047125164 0 0 0
397 1 6.922748978172413 1.12979332178925 17.623827426647374 0 0 0
401 1 11.0026468167104 0.09293578417497811 16.234233128003265 0 0 0
405 1 12.292966684217681 1.436672591103363 17.637112944904196 0 0 0
404 1 13.741457492084155 2.7049995904932262 16.075765273477177 0 0 0
409 1 16.45583216000088 0.1969938807299162 16.460737598968493 0 0 0
413 1 17.758512640328917 1.3767287008206885 17.836035221173645 0 0 0
412 1 19.099359976225482 2.696518849767404 16.432755434851178 0 0 0
417 1 0.060621409344161443 5.418526754119393 16.458190669239233 0 0 0
392 1 4.166968723497402 3.6497305506714737 17.771890385759292 0 0 0
425 1 5.24100479796096 5.334174745993458 16.264036844686004 0 0 0
400 1 9.38564644070579 3.9077339965717663 17.729910789433134 0 0 0
433 1 10.924170835577577 5.126100277306759 16.308940048744127 0 0 0
408 1 14.965476935814568 4.253847314882785 17.61178459082243 0 0 0
441 1 16.33244325430836 5.687657649646859 16.373411296194526 0 0 0
416 1 20.374308140291486 4.1330953779005 17.82475990816083 0 0 0
420 1 2.721803018688493 8.130009471718344 16.36051463627607 0 0 0
421 1 1.4001869177408959 6.739011951685917 17.769248905014045 0 0 0
428 1 8.316899528281816 7.979559027565724 16.164631215364203 0 0 0
429 1 6.827868002351644 6.6889531868914105 17.521775310046998 0 0 0
437 1 12.040245611118024 6.932690607767188 17.821889336199835 0 0 0
436 1 13.548151336206805 8.114710778409398 16.550462912405848 0 0 0
445 1 17.5732820920438 6.800521975460124 17.843906201261067 0 0 0
444 1 19.050645953831324 8.213252565978472 16.60891901990293 0 0 0
449 1 0.11569248775597082 10.91897538571382 16.188988177438414 0 0 0
453 1 1.3553547781863235 12.28915616300861 17.79404094789932 0 0 0
424 1 4.049342598744116 9.490993946642794 17.651989339819522 0 0 0
457 1 5.401871596203085 10.88721070152876 16.210911378025862 0 0 0
461 1 6.734504598129367 12.42981918663709 17.595061476419747 0 0 0
432 1 9.464297101552924 9.422441872277334 17.804995122874832 0 0 0
465 1 11.024520550344002 10.710296961110611 16.28909544039264 0 0 0
469 1 12.295336443170928 12.286900788499587 17.877700931732125 0 0 0
440 1 14.90239549549747 9.601771783925443 17.892385139860686 0 0 0
473 1 16.174234725520073 10.759595043266657 16.374363526018698 0 0 0
477 1 17.548777796202767 12.671417052784621 17.68088468228346 0 0 0
448 1 20.399850626635395 9.758477596141786 17.736749180139046 0 0 0
452 1 2.7605445568236595 13.77936366480417 16.314992186750594 0 0 0
456 1 4.041060657694781 15.17682599051536 17.627713456012927 0 0 0
460 1 8.186826886298366 13.735183152560506 16.217494221755036 0 0 0
464 1 9.389765942661292 14.9658973156917 17.711645431717702 0 0 0
468 1 13.405638114242226 13.690217498951151 16.392127001131374 0 0 0
472 1 15.037331550062511 14.993327183244393 17.603007316397818 0 0 0
476 1 18.830118311776463 13.732016812028922 16.256196677355895 0 0 0
480 1 20.44263159820733 14.788611643217932 17.58139747163962 0 0 0
481 1 21.775835145576877 16.13954655463774 16.430667108724673 -1 0 0
485 1 1.352137779314295 17.670656978592685 17.66609382311148 0 0 0
489 1 5.469714677483324 16.40558835235409 16.107063616237518 0 0 0
493 1 6.925419881787055 17.529759990261255 17.673559588120913 0 0 0
497 1 10.743684534198778 16.44903074479146 16.233425083712394 0 0 0
501 1 12.341881658347091 17.687395161705748 17.365638110302793 0 0 0
505 1 16.2862797154769 16.46811279564771 16.409773176265315 0 0 0
509 1 18.07070288689368 17.501327111494945 17.698389710325642 0 0 0
484 1 2.672270324505215 19.08932599490431 16.307662210610157 0 0 0
488 1 3.9858622309632166 20.443869959520406 17.63409929305019 0 0 0