LAMMPS data file via write_data, version 29 Aug 2024, timestep = 10000000, units = metal

512 atoms
2 atom types

0 21.74780435 xlo xhi
0 21.74780435 ylo yhi
0 21.74780435 zlo zhi

Masses

1 28.0855
2 12.011

Atoms # atomic

1 2 21.725589132453656 21.736579213852146 0.14163228136154818 -1 -1 0
2 1 21.56452273272638 2.7346053601116855 2.582909595578947 -1 0 0
3 1 2.5527903184334413 21.705666202843 2.630671058427632 0 -1 0
4 1 2.712420598874808 2.824482444664344 21.721786154573376 0 0 -1
5 1 1.3218628297055954 1.414072524816762 1.3252600365200753 0 0 0
9 1 5.502470106321895 21.620653335666816 0.07791897294910917 0 -1 0
10 1 5.273642691585625 2.7778195475477045 2.6035607025012686 0 0 0
11 1 8.143281559384448 21.686510991118844 2.6625456716640334 0 -1 0
12 1 8.248392192296986 2.7206349557969447 21.637009407149083 0 0 -1
13 1 6.717699196102436 1.4215906085582315 1.3378153064492875 0 0 0
17 1 10.762111531830563 0.131220704241198 0.021838269713120455 0 0 0
18 1 10.9369605401661 2.715313160668268 2.773126188809498 0 0 0
21 1 12.215667741704793 1.4826762857378344 1.3225495548803867 0 0 0
19 1 13.66362207043383 0.1243229482065588 2.7338227419773355 0 0 0
20 1 13.59859617427676 2.7052113953882064 21.5989110357745 0 0 -1
25 1 16.526637638248438 21.742754772547624 21.72776544878978 0 -1 -1
26 1 16.371090997512297 2.6630265374817426 2.549794241918939 0 0 0
29 1 17.78015883709066 1.371072065123797 1.3100985395847136 0 0 0
27 1 19.019377593971274 21.733775716841517 2.5945314838923466 0 -1 0
28 1 18.974332511976314 2.783515503400149 21.590195455551537 0 0 -1
33 1 0.023959460647427995 5.4546457180328245 0.06470799352295814 0 0 0
35 1 2.7465760397112335 5.454130046347473 2.7426719264070094 0 0 0
8 1 3.9535366808847208 4.204274344603398 1.246559789751327 0 0 0
41 1 5.4572405102441195 5.521717637371387 21.623312779997825 0 0 -1
43 1 8.311863539786382 5.318608459376222 2.8481464667429726 0 0 0
16 1 9.51982857304942 3.976071590883117 1.3791048272130941 0 0 0
49 1 10.6692085479274 5.338258782144416 21.582587432941096 0 0 -1
24 1 14.897391269707528 4.119886909392964 1.343527600120515 0 0 0
51 1 13.494266700487763 5.547966090371079 2.6209962657592625 0 0 0
57 1 16.172185217796233 5.613480698910849 21.74208695323115 0 0 -1
32 1 20.24651835249106 4.126781701252865 1.2315088402350962 0 0 0
59 1 19.080192497069362 5.516640894125332 2.586899194249447 0 0 0
34 1 21.704603528103096 8.223605570539219 2.809255057341786 -1 0 0
36 1 2.6792053754900302 8.204626486218453 0.09565958843352622 0 0 0
37 1 1.3152673157329722 6.874541773278252 1.5899281661855864 0 0 0
42 1 5.430378257772169 8.110373118081437 2.8957556249191567 0 0 0
44 1 8.217929114244601 8.127891806094336 0.052257542017951075 0 0 0
45 1 6.771764138702628 6.774156700050479 1.5644517858107307 0 0 0
50 1 10.863655311121818 8.169929439494119 2.6456737318784636 0 0 0
53 1 12.117617242811589 6.834259593864917 1.1176613145343386 0 0 0
52 1 13.337429432070902 8.12702224383202 21.583379177419058 0 0 -1
58 1 16.274943222124566 8.141731474937881 2.5578534463090112 0 0 0
61 1 17.74013176005393 6.72893465366545 1.2145919154228173 0 0 0
60 1 19.039897857591914 8.041301331660694 0.005288697866857716 0 0 0
65 1 21.736622584905486 10.869348918146054 0.04026640874211564 -1 0 0
67 1 2.7079314025333177 10.83051449112027 2.517648713951869 0 0 0
69 1 1.4239179851819832 12.228691758226246 1.320785694154471 0 0 0
40 1 4.31558353319101 9.527318180074635 1.381445566215061 0 0 0
73 1 5.563711141195336 10.804726067796487 21.712748354024637 0 0 -1
75 1 7.999407031679573 10.890398108468316 2.755064327546668 0 0 0
77 1 6.761676931730824 12.20150574569809 1.3336016909162185 0 0 0
48 1 9.407315367450655 9.544579862719317 1.4861916450624604 0 0 0
81 1 10.974110188605858 10.859671990668573 0.10960689888582562 0 0 0
85 1 12.31619706375677 12.144561004731457 1.5061333172635063 0 0 0
56 1 14.834807499340853 9.34005762891611 1.1879818991123867 0 0 0
83 1 13.63706419518564 10.678092044827865 2.603452264949401 0 0 0
89 1 16.239218791829483 10.796201523297139 21.660052717575113 0 0 -1
93 1 17.60898269412493 12.324175480760346 1.2631423209008612 0 0 0
64 1 20.162140241977475 9.417565728419897 1.5140481016590466 0 0 0
91 1 18.824941037708935 10.966565297078679 2.6671299497050693 0 0 0
66 1 0.08661978690362876 13.67098493908584 2.8037882727620986 0 0 0
68 1 2.8535071564973826 13.452514215665197 0.07726664974630126 0 0 0
72 1 4.216349511759777 15.004702677708798 1.3277984804028296 0 0 0
74 1 5.496739863190261 13.619107297471082 2.672769963122966 0 0 0
76 1 8.173196947758589 13.494084820612322 0.0780933575142639 0 0 0
80 1 9.560826324738606 14.757607729847201 1.4429764465441794 0 0 0
82 1 10.811216624033014 13.316686693079498 2.7906323919107705 0 0 0
84 1 13.635090373023523 13.549389747550036 0.15461245614212324 0 0 0
88 1 15.101966106922779 14.968316468808737 1.39410604896403 0 0 0
90 1 16.353342351404745 13.628883083890706 2.8093665889085773 0 0 0
92 1 19.145505338271867 13.65366348247266 0.10147908729191855 0 0 0
96 1 20.55255269459433 14.935010544704998 1.3461701730461326 0 0 0
97 1 0.10428864656218557 16.25448326733495 21.68230064778514 0 0 -1
99 1 2.7298420281581968 16.285049211618453 2.693617656667586 0 0 0
101 1 1.5432875743679233 17.669231161939898 1.3883178581678113 0 0 0
105 1 5.483557064613154 16.35573968235345 21.677758448741777 0 0 -1
107 1 8.223042129422693 16.178077633708163 2.8029967895114565 0 0 0
109 1 7.090688874684077 17.618022308860862 1.2025226729172784 0 0 0
113 1 10.86088488945902 16.267357625061425 0.21938237769653227 0 0 0
117 1 12.188971841326508 17.757624711388313 1.4064163362539506 0 0 0
115 1 13.649916861583632 16.373108384484613 2.650602606648168 0 0 0
121 1 16.33874454494533 16.336926267511682 0.09193651831074297 0 0 0
125 1 17.665624065224502 17.732831828397103 1.3280166932193258 0 0 0
123 1 19.130834471443393 16.263033219224525 2.6300826494223006 0 0 0
98 1 21.732636339297066 18.834223206051277 2.62405422052334 -1 0 0
100 1 2.722007557076774 19.11671249580032 21.737539304323686 0 0 -1
104 1 4.08305656689738 20.308350145494643 1.4135041278609128 0 0 0
106 1 5.63576630082173 18.924012177451015 2.622518155631149 0 0 0
108 1 8.302043496235097 19.040139000045478 21.58028046740775 0 0 -1
112 1 9.538893061104279 20.37257995997225 1.4112296078279885 0 0 0
114 1 11.02331322403875 19.107302381300318 2.625718500623376 0 0 0
116 1 13.64996999204638 19.138628324622584 21.635701116439 0 0 -1
120 1 15.173797920023013 20.540765536284074 1.2575119108976451 0 0 0
122 1 16.398636907593666 19.080965872484636 2.6876579557396667 0 0 0
124 1 19.129972595254873 18.87526120328109 21.723085801010647 0 0 -1
128 1 20.353393366268786 20.208798250052322 1.3629415495666157 0 0 0
129 1 0.05995560943859678 21.72591187352333 5.206923465181076 0 -1 0
132 1 2.8760698362013835 2.6959423612100863 5.330356012932536 0 0 0
7 1 4.0806798770142985 1.1986868187829365 3.8829410109366265 0 0 0
137 1 5.504602743014573 0.06411296896949681 5.441306380894626 0 0 0
140 1 8.139824699982524 2.6919650117445713 5.382962705715339 0 0 0
15 1 9.44738677200994 1.3600979652689347 4.128572286429255 0 0 0
145 1 10.841506676877845 0.03184652825531932 5.45080988648514 0 0 0
23 1 15.254536470706283 1.2217627796993273 3.993755634503361 0 0 0
148 1 13.80006934919467 2.752799936322082 5.195562554700272 0 0 0
153 1 16.389816664580003 0.1461662679474195 5.768567130228807 0 0 0
31 1 20.293980612399462 1.3702970861802664 3.9723889658424705 0 0 0
156 1 19.010371244091893 2.648045905767471 5.36928228947576 0 0 0
6 1 1.3281046793930174 4.1414120933262755 4.056293613069047 0 0 0
161 1 21.680201512125993 5.3777566240902175 5.403114021573762 -1 0 0
169 2 5.4000881860172445 5.380432944417213 5.504628269798045 0 0 0
14 1 6.648105586073061 3.9721168911685645 3.9882015913202227 0 0 0
22 1 12.315531658739717 4.067095547993152 4.097522788859059 0 0 0
177 1 10.920888479254865 5.297999143795664 5.452265852040592 0 0 0
30 1 17.777855379713046 4.1446036659389565 3.9252211682087883 0 0 0
185 1 16.34329836010465 5.332282921221612 5.331069813690859 0 0 0
164 1 2.596684202606683 8.125092530277495 5.516350721043687 0 0 0
39 1 4.10666093976515 6.792255332717177 4.247437946279557 0 0 0
172 1 8.118577712672687 8.122845045732621 5.505232984358424 0 0 0
47 1 9.533044623052794 6.874964660961873 4.21332256842463 0 0 0
55 1 15.026827122895709 6.7739890745172255 3.943752192479792 0 0 0
180 1 13.643551390195114 8.067608806041711 5.456095942759206 0 0 0
63 1 20.345478570497534 6.680739920736713 4.0788204921622 0 0 0
188 1 18.95998834619334 7.967358985382195 5.520781382554305 0 0 0
38 1 1.409743191983781 9.576038783070752 3.9165333164449954 0 0 0
193 1 21.68534743702338 10.782779315033709 5.422299609131756 -1 0 0
71 1 4.066970712390435 12.261260334859136 3.8941835880406073 0 0 0
201 1 5.283346430951996 10.973720579296709 5.671485148406796 0 0 0
46 1 6.806212676711586 9.467033903813634 4.2917992734112085 0 0 0
54 1 12.256011968506293 9.566113982741959 4.105457218038533 0 0 0
79 1 9.387527270544872 12.076317435601842 4.185646483871736 0 0 0
209 1 10.732985124593467 10.817480158376792 5.47040882131448 0 0 0
87 1 14.95043986759527 12.050168900740328 4.105465992402398 0 0 0
62 1 17.662558953938618 9.372487974908552 4.075554318436844 0 0 0
217 1 16.315811838520403 10.779943277567734 5.487352157233976 0 0 0
95 1 20.45617749899773 12.173177702416758 4.044940932828572 0 0 0
70 1 1.4756161018136165 14.941184981064318 4.118227780948042 0 0 0
196 1 2.8274095327159214 13.512306815534357 5.470123659663657 0 0 0
78 2 6.737209955127147 14.911957406364003 4.194916825935026 0 0 0
204 1 8.045132353487492 13.480675772596284 5.557814443826586 0 0 0
86 1 12.376041227340624 14.82339260333727 3.9374094941924174 0 0 0
212 1 13.553185080397931 13.471895988473621 5.354194188769862 0 0 0
94 1 17.91670940048028 15.02476629403082 4.141355854044814 0 0 0
220 1 19.142235443206086 13.629327677274889 5.429069084027905 0 0 0
225 1 0.07609371857882365 16.39356623623974 5.406231132997678 0 0 0
103 1 4.092078127366686 17.589445833141063 3.864092064609502 0 0 0
233 1 5.515327825239399 16.410408384180904 5.4708740873332475 0 0 0
111 1 9.684952602126177 17.554028473147994 4.024570474177969 0 0 0
241 1 10.848399028042774 16.232724590520018 5.301998550976261 0 0 0
119 1 15.042923021535906 17.686268975216393 4.069885620527372 0 0 0
249 1 16.439713242318756 16.294099583710146 5.302817477196628 0 0 0
127 1 20.38661896133606 17.73885709789321 4.094182980544462 0 0 0
102 1 1.3787283021944077 20.30499620375683 3.9832197342765476 0 0 0
228 1 2.79964958766459 19.111574844633463 5.375179898142402 0 0 0
110 1 6.8589769018480045 20.41340573469672 4.104558432499765 0 0 0
236 1 8.279641061187666 18.928254379313636 5.414791280178774 0 0 0
118 1 12.268034469940503 20.41338285750597 3.9899957120542844 0 0 0
244 1 13.676305115310118 19.071607139312597 5.389576488130572 0 0 0
126 1 17.727534760357543 20.50502388632605 4.297187918333296 0 0 0
252 1 19.0699454717779 18.940882255505617 5.542053778459188 0 0 0
130 1 21.640597664163835 2.621679681636983 8.225064924274376 -1 0 0
131 2 2.6656671115089376 21.740779879908 8.22959396799632 0 -1 0
133 1 1.3191567741965637 1.3622528483886556 6.911167682840696 0 0 0
138 1 5.511187341677596 2.732623464071648 8.036562276925004 0 0 0
139 1 8.329460270525034 0.0813667747316397 8.172025431222373 0 0 0
141 1 6.896343821197353 1.3895158594895325 6.734868101438464 0 0 0
146 1 11.114309283397592 2.673821820733227 7.999468647744587 0 0 0
149 1 12.37654280294008 1.4348422597749872 6.602618289684036 0 0 0
147 1 13.78688910350369 0.15202526468757457 7.940682100152845 0 0 0
154 1 16.299456627942877 2.7030579815902813 8.172196275982479 0 0 0
157 1 17.744089522648636 1.435631867995822 6.92521372341589 0 0 0
155 1 19.049708939309692 0.05529759752207541 8.277801363217758 0 0 0
163 1 2.602422397554976 5.299269303373239 8.180954940943488 0 0 0
136 1 4.098859097977936 3.9804146771708697 6.7162202821870824 0 0 0
171 2 8.121500394823633 5.392754387662145 8.037633866946639 0 0 0
144 1 9.594376991255636 3.943870191240497 6.892734069542495 0 0 0
152 1 14.966682400886311 3.9164493505343647 6.725276171374678 0 0 0
179 1 13.641911150787921 5.346635565916783 8.004145662045286 0 0 0
160 1 20.259937542326202 4.048416278405912 6.8306980151414125 0 0 0
187 1 18.88485305482595 5.399200981786701 8.185522408902209 0 0 0
162 1 21.51748822406694 8.168090353283697 8.335865497286264 -1 0 0
165 1 1.194517118169951 6.847954749430783 6.934861666993962 0 0 0
170 1 5.233012555922882 8.063941201984287 8.224301450657611 0 0 0
173 1 6.745439005633882 6.841230429239736 6.833278490986512 0 0 0
178 1 10.838616326073303 8.083659892229774 8.24732191249519 0 0 0
181 1 12.276633538121493 6.771636668975324 6.826254450509039 0 0 0
186 1 16.261338631976322 8.003308447124091 8.232534182179267 0 0 0
189 1 17.600221622402945 6.770538399248952 6.802626247018206 0 0 0
195 1 2.6783779516665094 10.921091046665643 8.404320311093828 0 0 0
197 1 1.418177047310595 12.142468140046423 6.806917150217565 0 0 0
168 1 3.827480926036926 9.548711810658121 6.831109900596574 0 0 0
203 1 8.165495215865294 10.948615996736711 8.359790698237836 0 0 0
205 1 6.851186049795641 12.362862029122146 7.0310411525690935 0 0 0
176 1 9.322365859622835 9.518291222126487 6.971408606402567 0 0 0
213 1 12.187921392825366 12.141430131963386 6.760948958039193 0 0 0
184 1 14.999121802654662 9.41191463043697 6.886051818033126 0 0 0
211 1 13.599022454019792 10.775850070516217 8.130648582069036 0 0 0
221 1 17.862935826176187 12.225875650956187 6.7687403143247185 0 0 0
192 1 20.25239510407296 9.495984906974693 6.76548917839238 0 0 0
219 1 19.066536174943558 10.788306824427446 8.136151947933037 0 0 0
194 1 0.12734370808662818 13.70466863136631 8.268233489301416 0 0 0
200 1 4.173692263543042 14.946224182164705 6.766124636112301 0 0 0
202 1 5.588544839321461 13.639471332019928 8.258989733510985 0 0 0
208 1 9.531125595971321 14.948709795620438 6.796181397484052 0 0 0
210 1 10.943757876354802 13.46318439505278 8.160272328945762 0 0 0
216 1 14.913958103129834 14.91948785149438 6.597281436375516 0 0 0
218 1 16.296170118738523 13.660824370799624 8.212867903854162 0 0 0
224 1 20.422284977494286 14.908391634608044 6.751659254426162 0 0 0
227 1 2.7931276413759534 16.448686257926436 8.044428143526678 0 0 0
229 1 1.4229258443101638 17.73070654821674 6.892953498379232 0 0 0
235 1 8.05876355277672 16.42986357324451 8.165699876307121 0 0 0
237 1 6.6973572934470305 17.70659713645919 6.862496395406828 0 0 0
245 1 12.240319231250915 17.61256425357025 6.674568723576851 0 0 0
243 1 13.609896313181043 16.19263602382015 8.12714372377734 0 0 0
253 1 17.5732689056596 17.68122137438731 6.872001962426945 0 0 0
251 1 19.05294591953487 16.30605252049414 8.163834665885785 0 0 0
226 1 21.721095063363176 18.99451969774459 8.142436009003042 -1 0 0
232 1 3.9904947570982365 20.620965067815963 6.759644614701075 0 0 0
234 1 5.41856309181113 19.220833293433863 8.08095694807686 0 0 0
240 1 9.631919897937017 20.354346192333292 6.799390759136431 0 0 0
242 1 11.006334749927225 19.001067893029603 8.067928423625785 0 0 0
248 1 15.233422012368411 20.255782891467398 6.781463473218394 0 0 0
250 1 16.337574768055205 18.960942539918975 8.268217015557289 0 0 0
256 1 20.420709532260602 20.481556168284882 6.816347760493326 0 0 0
257 1 21.60135928858845 21.730302802883653 10.921442228193316 -1 -1 0
260 1 2.6585754730709605 2.830457386837081 10.805966177577417 0 0 0
261 1 1.290010694480309 1.4404971345749595 12.148926143988747 0 0 0
135 1 4.087321474087586 1.4830891193874995 9.46011898163678 0 0 0
265 1 5.430912667056041 0.1426501010526028 10.751681050092024 0 0 0
268 1 8.258405596012489 2.725942876829496 10.937782859194638 0 0 0
269 1 6.8209318667016925 1.3029508337559523 12.222824448607275 0 0 0
143 1 9.755959671430524 1.396254196973423 9.561459465314956 0 0 0
273 1 10.92373687551152 21.603986159997266 10.676433610617575 0 -1 0
277 1 12.179941602621016 1.2928900881884877 12.067599963192164 0 0 0
151 1 15.052793482648754 1.3009809987729561 9.428743435796664 0 0 0
276 1 13.662717879645541 2.6809721176653274 10.800815909586012 0 0 0
281 1 16.348296077375135 21.55423321974481 10.69261364154594 0 -1 0
285 1 17.656655871663844 1.1461388893476812 12.19381296390284 0 0 0
159 1 20.287217733125836 1.321985572237959 9.646654645904063 0 0 0
284 1 18.915034064430984 2.8734991713919578 10.974712209833157 0 0 0
134 1 1.2785059582414675 4.084429770773084 9.451530928860358 0 0 0
289 1 21.53609697799962 5.4012014827512225 10.846845974889355 -1 0 0
264 1 4.054697782485725 4.067172911548572 12.378270032601845 0 0 0
297 1 5.549392320862847 5.3317709257695345 10.85220708527957 0 0 0
142 1 7.009826471809947 4.00485035422902 9.495619787693316 0 0 0
150 1 12.276255516297441 4.10370316050725 9.510139881282807 0 0 0
272 1 9.488700800454938 4.3225761940278815 12.170671407516528 0 0 0
305 1 10.908229134503515 5.5593528329546595 10.809648083229105 0 0 0
280 1 14.8577472518683 3.841066800709577 12.247404149853338 0 0 0
158 1 17.611835547131346 4.053803431974767 9.562845679715409 0 0 0
313 1 16.24577536422914 5.284739567882034 10.874008332189334 0 0 0
288 1 20.36154575876401 4.23612927298689 12.318831747999214 0 0 0
292 1 2.725785377200398 7.904883260172651 10.748967270449427 0 0 0
293 1 1.227478130934276 6.670049149162817 12.158068892936564 0 0 0
167 1 4.0334023634382845 6.561231931293789 9.395443713267174 0 0 0
300 1 7.903166227347414 8.359537900567299 10.953175246518473 0 0 0
301 1 6.629676022946323 6.971520303307182 12.149535592008828 0 0 0
175 1 9.338380635722075 6.846692412555257 9.532323877653528 0 0 0
309 1 12.301127078277707 6.69299928083936 12.344098314844834 0 0 0
183 1 15.001517099014755 6.703488479147818 9.575371902461065 0 0 0
308 1 13.591756984600359 8.165629153021166 10.826436136397769 0 0 0
317 1 17.469525761685418 6.866438345600649 12.143849059052691 0 0 0
191 1 20.177849573919808 6.836411711573687 9.57520418577658 0 0 0
316 1 18.9756072098325 8.183335607142865 10.971705407539696 0 0 0
166 1 1.2767966525149828 9.341181299498771 9.531088326740207 0 0 0
321 1 21.64356706592728 10.858385157859308 10.829544081961838 -1 0 0
325 1 1.4625114702137982 12.118701461258297 12.18593832153857 0 0 0
199 1 4.1330345644630535 12.173720340827915 9.452231502779851 0 0 0
296 1 3.9918431377040786 9.44312475946605 12.307281143360955 0 0 0
329 1 5.420416538264425 10.854856215128617 11.182694831366394 0 0 0
174 1 6.556613485995103 9.532996617467854 9.660823121004205 0 0 0
333 1 6.808023186649508 12.321991206257557 12.485790126198136 0 0 0
182 1 12.2612441875452 9.405621490430402 9.503679210191569 0 0 0
207 1 9.573725212069878 12.226207251335516 9.486493036488659 0 0 0
304 1 9.477847313748812 9.53949197994198 12.268231323448013 0 0 0
337 2 10.851650463436894 10.886488381839722 10.787625687408388 0 0 0
341 1 12.318292444630236 12.20869153847126 12.261071632145747 0 0 0
215 1 14.936597587425318 12.204491115151338 9.57536031293657 0 0 0
312 1 14.897610385015524 9.511792278367388 12.259263572352397 0 0 0
190 1 17.621549424360914 9.471799924908588 9.585202677468857 0 0 0
345 1 16.28797605776617 10.952192015301147 10.930956903077439 0 0 0
349 1 17.720884418223207 12.331725755100837 12.148729870086198 0 0 0
223 1 20.499306940686548 12.237865652469125 9.459620289110077 0 0 0
320 1 20.298833259458238 9.478152098674359 12.276979846816063 0 0 0
198 1 1.5080870043536372 15.103772490186017 9.624311208274921 0 0 0
324 1 2.937548282798869 13.52314959242198 10.997430757170513 0 0 0
328 1 4.033930986323892 15.046614443244277 12.38441239571595 0 0 0
206 1 6.786326162018468 15.054505188136178 9.710337147620894 0 0 0
332 1 8.169660995995184 13.639598151274269 11.05386912583084 0 0 0
214 1 12.226761060972247 14.945866194807175 9.4836066030596 0 0 0
336 1 9.626799188051008 15.020592577057982 12.319502021720666 0 0 0
340 1 13.687112503131416 13.55370139648198 10.832998320308366 0 0 0
344 1 14.927998857458881 15.036051772385209 12.127040107375601 0 0 0
222 1 17.645307105534958 15.033056061037989 9.497717102657454 0 0 0
348 1 19.05381040260829 13.706236064937931 10.762913020879493 0 0 0
352 1 20.429890488991067 14.832535725991336 12.354020180710195 0 0 0
353 1 21.701644902399813 16.251440987358507 10.981688566670995 -1 0 0
357 1 1.3765030994661116 17.747809506244426 12.218307977865523 0 0 0
231 1 4.2401780968698555 17.71473397487316 9.49566736143279 0 0 0
361 1 5.373913856786339 16.30854986099158 10.891823383312206 0 0 0
365 1 6.73375992926376 17.73759862416189 12.195923939105903 0 0 0
239 1 9.43140555878833 17.739625990458265 9.397347321384256 0 0 0
369 1 10.843411433502865 16.27273529899723 10.748903384616598 0 0 0
373 1 12.122580966379088 17.76846045389461 12.27217761103627 0 0 0
247 1 14.905408082617681 17.60077844340213 9.534780055912364 0 0 0
377 1 16.391355779792395 16.319432261496214 10.957691590229627 0 0 0
381 1 17.83442403870633 17.741884540990633 12.22737929921803 0 0 0
255 1 20.472603022600133 17.654721134455123 9.450960386198917 0 0 0
230 1 1.2224455167903012 20.464637544709355 9.512796123220827 0 0 0
356 1 2.7136110352170615 19.122738514407366 10.856996097374882 0 0 0
360 1 4.092941624241617 20.54795453911857 12.144678917783228 0 0 0
238 1 7.009612483441418 20.510648132806477 9.531775317470741 0 0 0
364 1 8.241800335518665 19.001437042320404 10.90561305544783 0 0 0
246 1 12.369942052029145 20.31487025493636 9.34076593115481 0 0 0
368 1 9.616580476529446 20.34850593359527 12.337209265833067 0 0 0
372 1 13.492750675428573 18.96019982219576 10.846214308766625 0 0 0
376 1 14.944547778277732 20.43800321492111 12.11243202330052 0 0 0
254 1 17.6796252760196 20.285157939621524 9.512143458033579 0 0 0
380 1 19.18294012709299 18.993141996948314 10.813399232329234 0 0 0
384 1 20.43923006457497 20.367111581321833 12.288596214114055 0 0 0
258 1 21.712768852665786 2.608405819241173 13.57894031895566 -1 0 0
259 1 2.5544104707960122 0.11220248304665947 13.505022434818533 0 0 0
263 1 4.037818218094414 1.3082428949974951 14.916138199900953 0 0 0
266 1 5.569231645671049 2.66225053968984 13.673564470809438 0 0 0
267 1 8.173428064414312 21.64634807559012 13.608562587535879 0 -1 0
271 1 9.61067744958316 1.3096465706354132 14.708313765965375 0 0 0
274 1 10.843765515850214 2.8373709265730023 13.368474462017883 0 0 0
275 1 13.581630544187655 21.731966539687566 13.424250964900542 0 -1 0
279 1 14.841922270660119 1.340274816038587 15.00527892569909 0 0 0
282 1 16.26380110543299 2.6060383560788267 13.547605063881454 0 0 0
283 1 19.090901889128514 21.734367845203998 13.563474651588054 0 -1 0
287 1 20.33116754377046 1.2774903212056352 14.896224642033081 0 0 0
262 1 1.3012748377184147 3.9799295923343254 15.03357757512295 0 0 0
291 2 2.6034083702263175 5.341458995382406 13.393706459578372 0 0 0
270 1 6.895855924909174 4.21975648259776 14.895243156264675 0 0 0
299 1 8.123622087755898 5.58869758499258 13.497773271775872 0 0 0
278 1 12.129917217938623 4.112606261560436 14.888044206965036 0 0 0
307 1 13.530269840508787 5.230561322593885 13.625741564575664 0 0 0
286 1 17.517846932803323 3.8717909583928067 15.030942782920055 0 0 0
315 1 18.814340462558558 5.434023026189626 13.614757615193584 0 0 0
290 1 0.054925220334241125 7.869763130102205 13.599892064488712 0 0 0
295 1 3.8837063279310287 6.6168111958542974 14.942201225157739 0 0 0
298 1 5.237681379719668 8.055417717001555 13.668212207437021 0 0 0
303 1 9.558850796851313 6.90487794957819 15.023984423046258 0 0 0
306 1 10.90099497065368 8.283573267439182 13.664101699453772 0 0 0
311 1 14.789507082334781 6.614568430393131 14.896845477145005 0 0 0
314 1 16.279306193934158 8.08866873649708 13.749960686319277 0 0 0
319 1 20.256063909939716 6.84508200482629 15.029448750785946 0 0 0
294 1 1.2927393543992864 9.337910104292288 15.00757184974821 0 0 0
323 1 2.697966676207971 10.706276159833404 13.815939700661373 0 0 0
327 1 4.183393355420635 12.19532275095297 15.137623106512518 0 0 0
302 1 6.6410815581803115 9.526358123084806 14.910750613702021 0 0 0
331 1 8.09813240898891 10.874339059484319 13.709614361723315 0 0 0
310 1 12.235523806624407 9.663847767831175 14.996215178501242 0 0 0
335 1 9.468136141299592 12.31842227146506 14.918291864246347 0 0 0
339 1 13.694213597809469 11.020886453714182 13.673269381583594 0 0 0
343 1 14.98052296991898 12.446336250983341 15.102162246256565 0 0 0
318 1 17.549966041301122 9.509318674881762 15.001750313735918 0 0 0
347 1 18.878399962134676 10.767428995881774 13.653202751371907 0 0 0
351 1 20.296102718043777 12.263163518118303 15.017736232295421 0 0 0
322 1 0.07215295487620543 13.449471405762173 13.493776900319661 0 0 0
326 1 1.329682234160196 14.85058884144968 15.00939804769139 0 0 0
330 1 5.475985139213091 13.740067248688666 13.784763321530303 0 0 0
334 1 6.846916754674276 15.178413950725627 14.885677898534954 0 0 0
338 1 11.018741305008945 13.707153122269734 13.668548651763672 0 0 0
342 1 12.349507339582017 15.173775234467602 15.008859855683445 0 0 0
346 1 16.305881307831882 13.739695133992514 13.652919922015117 0 0 0
350 1 17.57114404037818 15.084010945414105 15.170450119254781 0 0 0
355 1 2.5850641344989707 16.504505149604952 13.757906847548417 0 0 0
359 1 4.1382861820548875 17.901658948474765 14.962871765732492 0 0 0
363 1 8.234724580351852 16.398403763780095 13.60236972624457 0 0 0
367 1 9.713850670378262 17.66133696190888 15.177732846376545 0 0 0
371 1 13.679030486208307 16.465311529563802 13.625411824073375 0 0 0
375 1 15.042251789939462 17.774707696196206 14.985109609733627 0 0 0
379 1 19.135484783303177 16.36536506985677 13.759338572091513 0 0 0
383 1 20.517361730753425 17.779377870490098 15.060933293059543 0 0 0
354 1 21.74009070776143 18.966322583506024 13.507966391139826 -1 0 0
358 1 1.3033812539719765 20.431967501193235 14.79510197592157 0 0 0
362 1 5.51905574062616 19.152148719377806 13.538730764965813 0 0 0
366 1 6.829951188936063 20.295280422800236 15.053325298218162 0 0 0
370 1 10.88480918811779 19.04419352982255 13.674736799951104 0 0 0
374 1 12.276574945541244 20.464037699874122 14.992399699914895 0 0 0
378 1 16.26672800212205 19.00928949377002 13.480711019077521 0 0 0
382 1 17.7276368458201 20.267312176370975 14.802805262792628 0 0 0
385 1 21.64958239916767 21.69384469938725 16.19917281230386 -1 -1 0
388 1 2.762282617349015 2.7919788477826417 16.22559438449256 0 0 0
389 1 1.4210165702874828 1.3665398510358262 17.561133385288073 0 0 0
393 1 5.3737824249589305 0.013929253544834881 16.32501773246206 0 0 0
396 1 8.281354912124867 2.6424268486955937 16.166278265178033 0 0 0
397 1 6.814332366670914 1.5598916551533668 17.569079886288762 0 0 0
401 1 10.983004364076377 0.09396572292651319 16.33162845484925 0 0 0
405 1 12.294242226261995 1.4699562349859523 17.65164465748339 0 0 0
404 1 13.52627496895801 2.675289685140874 16.229169884606584 0 0 0
409 1 16.18832873262089 21.490644206212068 16.239755863135624 0 -1 0
413 1 17.489723421788625 1.1663780377029895 17.56547223723393 0 0 0
412 1 18.94611749008394 2.61427409467418 16.285604320813114 0 0 0
417 1 21.627632863508765 5.3669145676315315 16.313825639351958 -1 0 0
392 1 4.071973644992282 4.063338578683149 17.650973462637793 0 0 0
425 1 5.5791010880071505 5.425899921812522 16.219150419467862 0 0 0
400 1 9.507687433137633 4.086505745774989 17.56003483212725 0 0 0
433 1 10.857651060490099 5.495788823397138 16.216425588778698 0 0 0
408 1 14.753139499770745 3.864163357643567 17.693944705249024 0 0 0
441 1 16.06982133029259 5.321316234975536 16.528372834129833 0 0 0
416 1 20.377868749436015 3.9165157145235128 17.78528902590492 0 0 0
420 2 2.449257725947698 7.9270712792063875 16.356752667007115 0 0 0
421 1 1.11967683501147 6.714080134182611 17.734795982750995 0 0 0
428 1 8.093388768625738 8.345321076191151 16.33126746523029 0 0 0
429 1 6.745006221648892 6.8925147019138615 17.64475114771169 0 0 0
437 1 12.18434805680697 6.918512271388979 17.521805107649893 0 0 0
436 1 13.513273293319482 8.077963395437388 16.166041002711875 0 0 0
445 1 17.64604396524595 6.659404902132409 17.83925561974651 0 0 0
444 1 18.886816555696857 8.20906868654671 16.284621465681855 0 0 0
449 1 21.676438312001697 10.83669278322144 16.36402778374883 -1 0 0
453 1 1.2494333346831548 12.110967999385776 17.73189721159607 0 0 0
424 1 3.9473783580234993 9.472580350855253 17.80499129017983 0 0 0
457 1 5.451552562962296 10.794982816950288 16.394855702875294 0 0 0
461 1 6.790721976519723 12.291147943261004 17.61779828354981 0 0 0
432 1 9.460525348520513 9.651555375175102 17.593608921410134 0 0 0
465 1 10.739729295109738 11.015927477399279 16.215670061960665 0 0 0
469 1 12.222142258633687 12.378685830048719 17.57797175513586 0 0 0
440 1 14.848847769502251 9.375696937526342 17.590582458550053 0 0 0
473 1 16.163939945786247 10.78937305483541 16.293052865258097 0 0 0
477 2 17.547871567505393 12.273232626939617 17.674723861748678 0 0 0
448 1 20.214000915930598 9.512604814530919 17.74971029626703 0 0 0
452 1 2.7115367613475625 13.48013770324261 16.44862001543403 0 0 0
456 1 4.046572943430829 14.90019312917237 17.490291574050673 0 0 0
460 1 8.20561513957698 13.730463765336465 16.2854904403646 0 0 0
464 1 9.379115919778348 14.923168542425678 17.799983509140663 0 0 0
468 1 13.743395975423388 13.798945508372606 16.364157299322812 0 0 0
472 1 15.026391450780453 15.034782316236955 17.77837185505139 0 0 0
476 1 19.114700795786085 13.592765935776935 16.271341658105094 0 0 0
480 1 20.30050575154633 15.100484303839288 17.623989889152828 0 0 0
481 1 0.1884811746150023 16.395996158332384 16.494205129272125 0 0 0
485 1 1.5970586609354855 17.937898153717338 17.85246376598594 0 0 0
489 1 5.420805596629904 16.401846524127446 16.182753749127134 0 0 0
493 1 6.671507836569206 17.626650911334774 17.601384163841942 0 0 0
497 1 10.893226532789884 16.317769624944034 16.624839739856064 0 0 0
501 1 12.232998027011918 17.876163774387102 17.689918057033548 0 0 0
505 1 16.340255807920297 16.464555158632706 16.41693480433185 0 0 0
509 1 17.641968155622333 17.845825493098424 17.673242183370665 0 0 0
484 1 2.742942224161933 19.232029719227093 16.316657482621956 0 0 0