LAMMPS data file via write_data, version 29 Aug 2024, timestep = 10000000, units = metal

512 atoms
2 atom types

0 21.78415134 xlo xhi
0 21.78415134 ylo yhi
0 21.78415134 zlo zhi

Masses

1 28.0855
2 12.011

Atoms # atomic

1 1 21.71609711317845 21.583998897435425 0.0074192811712105655 -1 -1 0
2 1 0.0373670625279248 2.606197555016858 2.8357220089417967 0 0 0
3 1 2.8399678966633255 21.604854334381873 2.6916204599738713 0 -1 0
4 1 2.8002464394650417 2.5474479471229152 0.13833100479495153 0 0 0
5 1 1.2129249514345046 1.2706465712663508 1.364064923685808 0 0 0
9 1 5.399635228912154 21.75820454320358 0.24164377373086657 0 -1 0
10 1 5.290497664274747 2.483067098931124 2.676833846929746 0 0 0
11 1 8.245386884078401 0.07122121401140245 2.8444195025340977 0 0 0
12 1 8.087295232298368 2.8884504633346566 0.15475234707559546 0 0 0
13 1 6.7937252321503125 1.398570860822426 1.5250885259461577 0 0 0
17 1 10.8899500876345 0.025040826460841974 21.65145292297294 0 0 -1
18 1 10.80967885794923 2.7285964165448977 2.806829623816559 0 0 0
21 1 12.30940028253888 1.5209124281440214 1.2876963918553184 0 0 0
19 1 13.682654789743252 0.0029400874035954965 2.592586000684935 0 0 0
20 1 13.636955227790477 2.708682037272601 0.013487490790679936 0 0 0
25 1 16.567670748565007 0.11881736448833158 0.15388919810018653 0 0 0
26 1 16.341779174808725 2.8650080662805557 2.8424009918884217 0 0 0
29 2 17.82732837717941 1.4098176751478846 1.4724271582090405 0 0 0
27 1 19.139294211863557 0.008711857104192122 2.694948600637616 0 0 0
28 1 19.01289800128793 2.642883519674797 0.05789128202006062 0 0 0
33 1 0.06250443818043987 5.49907601710013 0.09771779971952721 0 0 0
35 2 2.8681877458340352 5.518065568548631 2.7831934679462083 0 0 0
8 1 4.084168100454934 4.084663392267726 1.1758782907787435 0 0 0
41 1 5.284679049687263 5.772968055104618 0.004181811362630754 0 0 0
43 2 8.11118169020595 5.573284198130835 2.8881747000304165 0 0 0
16 1 9.396975488905682 4.2976918521552125 1.3552727963011415 0 0 0
49 1 10.98514417425382 5.319505804831884 21.62177195381096 0 0 -1
24 1 14.869329617331537 4.093901892536771 1.3718370126150459 0 0 0
51 1 13.640807384325958 5.35856509311951 2.806761591206787 0 0 0
57 1 16.334760185534147 5.452104853175149 0.059366993514030256 0 0 0
32 1 20.42062057887336 4.2045996479553125 1.3821479784210402 0 0 0
59 1 19.230408079450708 5.540340335017589 2.9223718381373542 0 0 0
34 1 0.08779995063056223 8.220452738742864 2.745654255879374 0 0 0
36 1 2.7079510789851353 8.210204851186239 21.773991770346452 0 0 -1
37 1 1.4021958880843353 6.864731547450321 1.4308303126086022 0 0 0
42 1 5.293225922081542 8.231559694528846 2.6785800790036625 0 0 0
44 1 8.175106213148469 8.144276308910385 0.2869153245448686 0 0 0
45 1 6.6347585046074755 6.8434345525894695 1.5034031990300862 0 0 0
50 1 11.049630331652434 8.168457338453983 2.7162386801454375 0 0 0
53 1 12.392705318515121 6.779038781338227 1.3006031223802852 0 0 0
52 1 13.700915080571768 8.198580355575453 21.702400525728436 0 0 -1
58 1 16.42953522564821 8.11976045229719 2.6971924117738353 0 0 0
61 1 17.875717081469652 6.830767135821993 1.3143162698017823 0 0 0
60 1 18.987483990477138 8.364931910151212 0.12165232004984257 0 0 0
65 1 0.0836342438022091 11.161233946510041 21.63679411482566 0 0 -1
67 1 2.742923807422383 11.009771332841034 2.8346949293623833 0 0 0
69 1 1.442717951018781 12.396546481429413 1.2750395020510863 0 0 0
40 1 4.1736611055974535 9.61735402883638 1.1589057832361975 0 0 0
73 1 5.515590754143638 10.917385411886018 21.661069181556915 0 0 -1
75 1 8.040802402535322 10.803898243227756 2.709068374819928 0 0 0
77 1 6.877380628787784 12.173741753288377 1.3190572980753448 0 0 0
48 1 9.600861089590028 9.585142993758689 1.3939200841664732 0 0 0
81 1 10.84939299283672 10.973903639491214 21.708927770585944 0 0 -1
85 1 12.239928079134225 12.49341207364377 1.149938695861329 0 0 0
56 1 14.987705845480114 9.540972919956173 1.2322833500704773 0 0 0
83 1 13.569148760489263 10.960457949432874 2.5461273294527214 0 0 0
89 1 16.526744017021624 11.10200985467365 21.69781993294652 0 0 -1
93 1 18.003431017165116 12.32869248294625 1.379420685272224 0 0 0
64 1 20.702247471214147 9.59673816446006 1.3257423221599716 0 0 0
91 1 19.257821888299954 10.858854765695543 2.926279773532413 0 0 0
66 1 0.06801087517353348 13.627939318181225 2.7588290047695128 0 0 0
68 1 2.71114974255649 13.861568998687998 0.08894072929768912 0 0 0
72 1 4.179165573615157 14.909750850906502 1.4905259247351634 0 0 0
74 1 5.6773238918971245 13.629883402803827 2.687752773178498 0 0 0
76 2 7.985499801003153 13.621934307325986 0.0641494336217804 0 0 0
80 1 9.588189423454555 14.97492011264843 1.4821301570015788 0 0 0
82 1 11.021473773370193 13.68677806455988 2.6920831926960944 0 0 0
84 1 13.693441000023205 13.802313210779053 21.562150579975313 0 0 -1
88 1 14.98314186305656 15.019324612584372 1.1494449504421003 0 0 0
90 1 16.245931680965988 13.506522464505217 2.5983815119578755 0 0 0
92 1 19.155513919317038 13.822170515378462 21.70940000589903 0 0 -1
96 1 20.337574970137354 14.761084763375168 1.4947540560601864 0 0 0
97 1 21.535133648886585 16.440322385794154 0.05742539517674349 -1 0 0
99 1 2.7659006918657023 16.384446074300705 2.6948332308562044 0 0 0
101 1 1.439362325509597 17.71049414867015 1.1800154787922992 0 0 0
105 1 5.401175452350223 16.38981062879944 0.047182487628078314 0 0 0
107 1 8.25155697477184 16.423992609472116 2.760134283279637 0 0 0
109 1 6.969566240731764 17.523160913238932 1.3501675921279594 0 0 0
113 1 10.814293836659964 16.470030968831264 0.018831427428676304 0 0 0
117 1 12.203226908586744 17.81291906228195 1.1899285115681784 0 0 0
115 1 13.695450751810712 16.528292250798216 2.3665613917821235 0 0 0
121 1 16.401570883268175 16.46135029643807 21.704937666264794 0 0 -1
125 1 17.751565519278532 17.71225327790416 1.302474995085274 0 0 0
123 1 19.042646544795254 16.24523843215481 2.8890990379406727 0 0 0
98 1 21.766860969978854 18.896251078979905 2.693264566790823 -1 0 0
100 1 2.871208286081549 18.845579834639015 21.705068936588276 0 0 -1
104 1 4.248083904012778 19.887387395816017 1.4750898471005789 0 0 0
106 1 5.656092653297322 18.82361427687673 2.988955580803781 0 0 0
108 1 8.14066919588638 19.13250971324173 21.70767083306313 0 0 -1
112 1 9.560414622265599 20.446503913308877 1.2488208589684326 0 0 0
114 1 11.066501142508399 19.205155241864862 2.4956282958142753 0 0 0
116 1 13.464917965507746 19.237743677972965 21.767695273049572 0 0 -1
120 1 15.087058429331485 20.353815112974708 1.387185020348157 0 0 0
122 1 16.480797371882343 19.109941711585968 2.8164857181390373 0 0 0
124 1 19.093964797737208 19.07592920411684 0.09631399833481463 0 0 0
128 1 20.508396877319203 20.415064926773862 1.3593688339133823 0 0 0
129 1 21.675032194380684 21.718169803397696 5.56115690890869 -1 -1 0
132 1 2.538487768166036 2.7001739275548853 5.610934281788512 0 0 0
7 1 4.109749736020546 1.3100599407639062 4.217621028757911 0 0 0
137 1 5.106284412859483 21.6433236311653 5.779150525534592 0 -1 0
140 1 8.071161073938894 2.7702390753237727 5.339387236473082 0 0 0
15 1 9.586085102213254 1.4496590752274494 4.102510012101319 0 0 0
145 1 11.049134073168005 0.1298306509601908 5.334917061451339 0 0 0
23 1 14.938377030188557 1.4777761496671733 4.00517773671463 0 0 0
148 1 13.578893683887935 2.7985090870330667 5.340845276409106 0 0 0
153 1 16.25585578907046 0.178789054338184 5.448050928927487 0 0 0
31 1 20.48673346285699 1.2664468674222196 4.1559932353583235 0 0 0
156 1 19.07788195635883 2.5014363765133263 5.485437457846779 0 0 0
6 1 1.3829362849311826 4.105346450749501 4.197811502144072 0 0 0
161 1 0.10847254810751814 5.3465226409814335 5.504732905439103 0 0 0
169 1 5.347013339395312 5.504382773628705 5.418259563104246 0 0 0
14 1 6.71168404425188 4.22414709840597 4.028104156716868 0 0 0
22 1 12.107508078564633 3.986576362181678 4.152722662419973 0 0 0
177 1 10.79587789470369 5.228813664079621 5.4761823279609 0 0 0
30 1 17.913208264441245 4.144929943267207 4.082427898168139 0 0 0
185 1 16.493503028753448 5.23010461936441 5.464833036611285 0 0 0
164 1 2.607394094630673 8.309916628482245 5.5044807596402725 0 0 0
39 1 4.03723121993363 7.005240326051713 4.222216382292703 0 0 0
172 1 8.030715951076171 8.096596753304688 5.288334393157319 0 0 0
47 2 9.57012934854398 6.800429541344826 4.095902851508446 0 0 0
55 1 15.066757311884135 6.5670713866944 4.159014537603742 0 0 0
180 1 13.51232339704727 7.998066152393301 5.393299438251038 0 0 0
63 1 20.675066678633023 6.864103207368493 4.331626954160062 0 0 0
188 1 19.08185433747858 8.206894603623114 5.400195090581999 0 0 0
38 1 1.2886767262392258 9.670301659933589 4.180943211433892 0 0 0
193 1 21.77684768651075 11.01841846398539 5.65501365750395 -1 0 0
71 1 4.4098194597787 12.418445729892394 4.005459607330712 0 0 0
201 2 5.448744638126426 10.771693150738708 5.37075664418309 0 0 0
46 1 6.836768505478129 9.453948722254239 3.9152669787666903 0 0 0
54 1 12.413614014423889 9.600365014457072 4.050890529875476 0 0 0
79 1 9.676008319541642 12.174559510676005 3.9438154524179097 0 0 0
209 1 10.936857608622354 10.857605260190752 5.443059694212046 0 0 0
87 1 14.935531803257604 12.193928854628151 3.97795098473485 0 0 0
62 1 17.655596961429808 9.589379736572557 4.072745739172274 0 0 0
217 1 16.242463424567624 10.859327338368324 5.340450596773241 0 0 0
95 1 20.5417408138628 12.402308892863962 4.15880649241724 0 0 0
70 1 1.4633374479359327 14.961771291977614 4.20657605735138 0 0 0
196 2 2.883576929876883 13.521519532105902 5.478761505598664 0 0 0
78 1 6.889647691033561 15.26528254859423 4.099590585419673 0 0 0
204 1 8.273145732358019 13.533783234899564 5.2057410651868805 0 0 0
86 2 12.252831933672013 15.212755003518975 4.196749793181311 0 0 0
212 1 13.48857431915773 13.421556766176602 5.401663580059794 0 0 0
94 1 17.621971413261548 14.927630102084954 3.988806164218728 0 0 0
220 1 18.938849241904645 13.625662596114644 5.385167497834331 0 0 0
225 1 0.1689824152654253 16.281975028441767 5.3548289050602085 0 0 0
103 1 4.108043925870275 17.744174553212268 4.207933460228244 0 0 0
233 1 5.567638325898219 16.50973465535332 5.529829363595322 0 0 0
111 1 9.703041924576869 17.92097792022264 3.9993924255549382 0 0 0
241 1 10.772697694596108 16.53281533313121 5.6250449389939785 0 0 0
119 1 14.947908277714834 17.715662419914555 4.027310229269098 0 0 0
249 1 16.266801908492724 16.10726428271185 5.3155667429787945 0 0 0
127 1 20.560163685118802 17.563843306679654 4.116465403121017 0 0 0
102 1 1.4643999513913826 20.36475043505885 4.183922289937528 0 0 0
228 1 2.6273287779267283 18.91540030818626 5.666263513874016 0 0 0
110 1 6.969832617723236 20.541897236197677 4.3967093268013375 0 0 0
236 1 8.248238240195167 19.084716563757382 5.6769935408743 0 0 0
118 1 12.429592722550188 20.576449368547685 3.9774042878983074 0 0 0
244 1 13.651383182473335 19.130741322033042 5.350679153837124 0 0 0
126 1 17.867100800112482 20.579619517600282 4.2376161968552575 0 0 0
252 2 19.156836104587736 18.963967670329723 5.4852050439332825 0 0 0
130 1 0.013620105978630332 2.8895173685822106 8.332755628611192 0 0 0
131 1 2.5799917110951878 21.748419665934378 8.498638259174056 0 -1 0
133 1 1.2975756100460256 1.2182813455128214 6.988873886749948 0 0 0
138 1 5.4874972064813585 2.7946264693983145 8.350746540940191 0 0 0
139 1 8.19928569014297 21.727314155568422 8.106241460942046 0 -1 0
141 1 6.686648754640245 1.4024248428156636 6.8324832119472925 0 0 0
146 1 10.767012537885291 2.84498241839979 8.188550176126096 0 0 0
149 1 12.290459052455462 1.4757291379056063 6.925501329644012 0 0 0
147 1 13.647770997672895 21.714804677129642 8.35090989837388 0 -1 0
154 1 16.376496489457935 2.6420973883121492 8.059136920627125 0 0 0
157 1 17.641115451300823 1.2264192166705348 6.834489183674284 0 0 0
155 1 19.031923463113916 0.06799362821809965 8.128240973505617 0 0 0
163 1 2.577591202827773 5.384812654285239 8.11896942467549 0 0 0
136 1 4.250432029229329 3.9769702241964766 6.740069890726538 0 0 0
171 1 8.423562283736505 5.5592264013915464 8.045999177642749 0 0 0
144 1 9.436182920199265 3.9559305371528355 6.61432906574103 0 0 0
152 1 15.042483881236022 3.9627487626507705 6.743271675007995 0 0 0
179 1 13.796771327418586 5.4221416192485 8.000644645753045 0 0 0
160 1 20.39427001970069 3.9232882879923685 6.693649715338703 0 0 0
187 1 19.29382788836457 5.413956200080406 8.143214054938696 0 0 0
162 1 21.731722685221936 8.23100898642843 8.12675404084944 -1 0 0
165 1 1.4223816305529169 6.7786371313344675 6.845994609566968 0 0 0
170 1 5.684323058255128 8.15161960774721 8.201302144740676 0 0 0
173 1 6.845089928103746 6.781553458863918 6.641055241880549 0 0 0
178 1 10.76717973056917 8.08904246091249 8.072872676033096 0 0 0
181 1 12.132135066204178 6.714661640127409 6.904629303660449 0 0 0
186 1 16.51513645145083 8.174738547468447 8.17474777638309 0 0 0
189 1 17.69042333660464 6.827142921988142 6.798939497955825 0 0 0
195 1 2.608682666397993 10.729737504822829 8.342914101888958 0 0 0
197 1 1.4240842469345871 12.057084676724086 6.91532054338447 0 0 0
168 1 4.132304194655833 9.480351400713634 6.966241925339286 0 0 0
203 1 8.193798835064708 10.75923452054572 8.119650885166715 0 0 0
205 1 6.86773868000077 12.215140195218083 6.7290787940050025 0 0 0
176 1 9.46689093893787 9.531696445340913 6.596140307788705 0 0 0
213 1 12.383640476284288 12.03523579641465 6.7812793876756094 0 0 0
184 1 15.133840102043054 9.366247481347601 6.714001765573931 0 0 0
211 1 13.912342848636943 10.719622728944927 8.043193115132043 0 0 0
221 1 17.710509583434025 12.179150132059933 6.691773569848311 0 0 0
192 1 20.366673096082902 9.546782845789682 6.758963007231902 0 0 0
219 1 18.96059309772682 10.852894821361977 8.027139529490412 0 0 0
194 1 21.723499270443757 13.653946030050774 8.302255208196865 -1 0 0
200 1 4.238746346456764 15.00043137413553 6.72223853841101 0 0 0
202 1 5.44073608567318 13.421461929994287 8.063639974481285 0 0 0
208 1 9.41282349540578 14.971399106094367 6.835577884318605 0 0 0
210 1 10.938092198384727 13.557940383726251 8.098283294215591 0 0 0
216 1 14.857794408559934 14.658286835355245 6.646905211897483 0 0 0
218 1 16.455210932700243 13.620040980584022 8.137473894373105 0 0 0
224 1 20.609256586402903 14.879670431785026 6.727076126123185 0 0 0
227 1 2.499488515158209 16.384980508390033 8.02961135598953 0 0 0
229 1 1.2523482699225763 17.683269093066222 6.845997831964305 0 0 0
235 1 7.994114316458061 16.202557457294343 8.299799939257607 0 0 0
237 1 6.916542332240254 17.697114889161845 7.104426032539365 0 0 0
245 1 12.431546404934252 17.62445183066558 6.658126071615632 0 0 0
243 1 13.849864344528795 16.256464935909165 7.971891287005863 0 0 0
253 1 17.752504809846265 17.51690064857127 6.716784381580668 0 0 0
251 1 19.1927925455615 16.222871553842726 8.03159655646621 0 0 0
226 1 21.777321645701264 19.01561024681438 8.113243644138407 -1 0 0
232 1 3.8708996559831816 20.28861553250921 7.121914733753253 0 0 0
234 1 5.427797729177027 18.97539856789684 8.22703755547062 0 0 0
240 1 9.669720494788372 20.468266620768244 6.85857934786799 0 0 0
242 1 11.004501614884497 18.89340090280086 8.19631780720374 0 0 0
248 1 14.918269600712012 20.476557636440557 6.705675250580694 0 0 0
250 1 16.34757133074824 18.91451273621976 8.018012058348681 0 0 0
256 1 20.31355133526004 20.32598979571147 6.853290911922236 0 0 0
257 1 0.004095098731161 21.723856088524098 11.021029416298665 0 -1 0
260 1 2.632964336147442 2.794571107899899 11.008658170612192 0 0 0
261 1 1.341728964314698 1.3184716933956304 12.26270714343616 0 0 0
135 1 4.080500975586831 1.5977144837702106 9.590893733697792 0 0 0
265 1 5.445986408992697 21.733915321725796 10.764399547267264 0 -1 0
268 1 8.112199549637944 2.7849366764064247 10.90236518530442 0 0 0
269 1 6.75552417813829 1.332543184492113 12.193389458258515 0 0 0
143 1 9.581999889779091 1.4180336865667873 9.640582501320655 0 0 0
273 1 10.823120674452564 21.665848031360323 10.809689835323178 0 -1 0
277 1 12.40253649209405 1.269591016241886 12.013919311231904 0 0 0
151 1 15.037238152562143 1.3284096319113714 9.58545465943493 0 0 0
276 1 13.666480834504506 2.7355107369685467 10.767561057286576 0 0 0
281 1 16.3204630614253 21.52144555764086 10.799245590318261 0 -1 0
285 1 17.654519963723892 1.092221140955739 12.231388928834853 0 0 0
159 1 20.62518747057648 1.326157590723585 9.560254014471974 0 0 0
284 1 19.111439632710212 2.5026885464521462 10.803394980024704 0 0 0
134 2 1.3387643118890293 4.1138013902182555 9.816471490330892 0 0 0
289 1 0.015148526748603825 5.502925994129036 10.988719474029947 0 0 0
264 1 4.027174127854389 4.13679259316067 12.064351543981891 0 0 0
297 1 5.415032887782201 5.400389879283892 10.853107359663815 0 0 0
142 1 7.0338007511063605 4.328815125092618 9.37320308375172 0 0 0
150 1 12.369699858390213 4.3104530871167634 9.491932951833 0 0 0
272 1 9.611027615288988 3.8425785041812857 12.41014047645812 0 0 0
305 1 10.986007296571048 5.440399937122081 10.961818394225503 0 0 0
280 1 15.024605026148217 4.109841565943424 12.200473630282852 0 0 0
158 1 17.836469285844913 3.8887351677981905 9.394020758808578 0 0 0
313 1 16.396804275126307 5.192994437422981 10.748370305261064 0 0 0
288 1 20.41834726445651 3.9914454953151286 12.166966099573827 0 0 0
292 1 2.5315157824262124 8.092610224130905 10.800491300930233 0 0 0
293 1 1.3711127399129777 6.7939819192629445 12.461518109931424 0 0 0
167 1 4.1718986270424745 6.733760878772864 9.333056952038467 0 0 0
300 1 8.221342877454472 8.130506035732342 10.950949613559798 0 0 0
301 1 6.621192208134566 6.956531144030566 12.152213033159043 0 0 0
175 1 9.718400216038274 6.921788824561137 9.718125477841358 0 0 0
309 1 12.223139963251867 6.7811196293579 12.436600973620697 0 0 0
183 1 15.119324706097936 6.698966272679244 9.503790862968685 0 0 0
308 1 13.67393791189553 8.062250676213122 11.106464912428056 0 0 0
317 1 17.518121468644683 6.636072198055015 12.141495176244858 0 0 0
191 1 20.57970548118033 6.88102887355578 9.613677111331224 0 0 0
316 1 19.135581819368046 8.024836133578619 11.046272943430305 0 0 0
166 1 1.1394774558267657 9.491637675603277 9.655585857341741 0 0 0
321 1 21.587476131001694 10.933197728374367 11.213369554300836 -1 0 0
325 1 1.3745266020649896 12.250025201618213 12.278867202151604 0 0 0
199 1 4.020631035798351 12.077937298565029 9.696150458471331 0 0 0
296 1 4.061294919272157 9.475521629850181 12.171575815794057 0 0 0
329 1 5.6632696930072965 10.826197167483091 10.955645866431604 0 0 0
174 1 7.0111714687062285 9.528940287406169 9.517878019238168 0 0 0
333 1 6.860250813992513 12.076652053474593 12.200995993835472 0 0 0
182 1 12.351766309622603 9.465300335104795 9.50086875376863 0 0 0
207 1 9.413971688761213 12.285247752645285 9.41263638046095 0 0 0
304 1 9.500521072801497 9.740468324090703 12.12420963105264 0 0 0
337 1 10.829989274999015 10.874562327598728 10.734193872363441 0 0 0
341 1 12.373690074544012 12.083107989735325 12.282020907394424 0 0 0
215 1 14.857868238472188 12.300563374365975 9.31028058290726 0 0 0
312 1 15.019310550582905 9.56310612293655 12.3887457475333 0 0 0
190 1 17.693807426137322 9.591225013679002 9.6003990406038 0 0 0
345 1 16.1905893927539 10.897035438629468 10.84807777812871 0 0 0
349 1 17.654119381554036 12.002724571516879 12.162009226283608 0 0 0
223 1 20.414703924632438 12.010813495427975 9.52782558984863 0 0 0
320 1 20.39749386720385 9.37663196655242 12.605556194474941 0 0 0
198 1 1.415544381159123 15.103258155538029 9.628302191244261 0 0 0
324 1 2.5123702730154096 13.612378066899039 10.853459957570031 0 0 0
328 1 3.9106054009195894 14.852304432546198 12.189385304226509 0 0 0
206 1 6.622185216631432 14.735542781056656 9.574621674531194 0 0 0
332 1 8.12230019330662 13.399827178188252 10.92426418170767 0 0 0
214 1 12.369684215755019 14.881514201472474 9.353954188773242 0 0 0
336 1 9.411148077561542 14.991625059192975 12.288079400417914 0 0 0
340 1 13.561366561196674 13.562966136093562 10.898652096001484 0 0 0
344 1 15.002877480961663 14.953592695648917 12.100991213141123 0 0 0
222 1 17.77235033875235 14.818059709810308 9.544625770082789 0 0 0
348 1 19.09234452586931 13.504698060453341 10.89354024402584 0 0 0
352 1 20.213429283643755 14.949340031480803 12.159205197267234 0 0 0
353 1 21.78304159542946 16.25451074490449 11.034060125277252 -1 0 0
357 1 1.234179877307085 17.711727180956036 12.356310681451177 0 0 0
231 1 3.91223699592826 17.58980830601867 9.60106337732689 0 0 0
361 1 5.281292070370289 16.1722146139606 10.911109775867443 0 0 0
365 1 6.833328405872767 17.65894377052882 12.140823779528475 0 0 0
239 1 9.560593324034558 17.62611109468007 9.58475738090849 0 0 0
369 1 10.938965849552718 16.27195315782271 10.781087277817445 0 0 0
373 1 12.198372281449636 17.725947897147037 12.314356285958059 0 0 0
247 1 15.129922015727827 17.530452283661045 9.56530368214987 0 0 0
377 1 16.597452832913216 16.262277860039454 10.869992243092806 0 0 0
381 1 17.649870886188246 17.857866256987414 12.171901439970464 0 0 0
255 1 20.49647952759036 17.5451451820149 9.458229109444067 0 0 0
230 1 1.1352323823039483 20.225670206738428 9.688807214509625 0 0 0
356 1 2.570936075553837 18.910556329043754 10.92589188872123 0 0 0
360 1 3.9239609517102925 20.300383951051426 12.361481858582394 0 0 0
238 1 6.826479441057208 20.333627616724197 9.472287623001662 0 0 0
364 1 8.23909341812587 19.100633732816444 10.820996075831117 0 0 0
246 1 12.258778084195121 20.24549386956008 9.513036662689082 0 0 0
368 1 9.586696079916868 20.267554986918796 12.250213370789556 0 0 0
372 1 13.52070816916708 18.91264110186841 10.793214015837314 0 0 0
376 1 14.963747172602494 20.32237007853773 12.247519321016934 0 0 0
254 2 17.586177521391487 20.34211066773012 9.53593398311736 0 0 0
380 1 19.133889146562527 19.08800590808341 10.763089200785208 0 0 0
384 1 20.4522232667627 20.37412600954626 12.238665211770007 0 0 0
258 1 0.059397969777012394 2.6831067900717276 13.691658801307696 0 0 0
259 1 2.701875806363472 21.661897033308176 13.63074244409176 0 -1 0
263 1 4.04167174904804 1.4359715080628197 14.932529711124934 0 0 0
266 1 5.35600010303021 2.847105527892608 13.365126734124306 0 0 0
267 1 8.124982690136097 21.68279420884369 13.42981796284396 0 -1 0
271 1 9.323841283787415 1.1207043443030424 14.936914132196918 0 0 0
274 1 10.971659200673518 2.4786864346450526 13.581859708660621 0 0 0
275 1 13.83262919388527 0.06744520408655422 13.53273753563833 0 0 0
279 1 14.996426771173942 1.2627699215757955 14.924790898208677 0 0 0
282 1 16.311702853003013 2.6403679281538577 13.408967053985359 0 0 0
283 1 19.03280992131969 21.583804520904227 13.558711082305779 0 -1 0
287 1 20.534982210126493 1.3236620059232247 14.82761013073229 0 0 0
262 2 1.1746907199183485 4.2892954252537665 15.039466792539924 0 0 0
291 1 2.744747952670824 5.4632080701764405 13.674543579675941 0 0 0
270 1 6.85743799476034 3.994939538704803 14.842820278015422 0 0 0
299 1 8.30261497616003 5.395011420993615 13.601321615927592 0 0 0
278 1 12.256012415292734 4.049786053094117 15.040239550534478 0 0 0
307 1 13.656360880042543 5.459527402339874 13.713796209689153 0 0 0
286 2 17.41006847191839 4.0332572236768325 14.953621597944142 0 0 0
315 1 18.960667828635746 5.466740838748476 13.627768939794933 0 0 0
290 1 0.024377327857439422 8.146163099226198 13.987378782440796 0 0 0
295 1 4.014672272112032 6.851053252754304 15.09123960874181 0 0 0
298 1 5.32825379331763 8.275658196094703 13.618850714712732 0 0 0
303 1 9.497239129675586 6.6567805869860095 15.136849934917471 0 0 0
306 1 10.658818384244062 8.12567550524955 13.596950316399658 0 0 0
311 1 14.904545649558285 6.8761211893365815 15.160279810603976 0 0 0
314 1 16.38462863457012 8.115162564353174 13.627815643214664 0 0 0
319 1 20.339474739740734 6.837319297653258 15.23684945142536 0 0 0
294 1 1.3215225987918517 9.762897957859225 15.176376228736993 0 0 0
323 1 2.8001449992860987 10.828142433961737 13.744801616714659 0 0 0
327 1 4.071270024396489 12.337179411134342 15.063103096469584 0 0 0
302 1 6.75875454875445 9.480581328763394 14.737653549262358 0 0 0
331 1 8.42108366239355 11.023954103551395 13.748294902588041 0 0 0
310 1 11.964961015311404 9.45066947838212 15.091594131870945 0 0 0
335 1 9.53863550768067 12.6201667631419 15.133829849389894 0 0 0
339 1 13.497753001019241 10.738145866842212 13.860404241676285 0 0 0
343 1 14.887443586016904 12.320557475715667 14.898087674761458 0 0 0
318 1 17.57126595273271 9.432032566577101 15.055728796769843 0 0 0
347 2 18.891921852774534 10.769763660037183 13.636013490304624 0 0 0
351 1 19.89655394110957 12.267168245690886 15.050182183725594 0 0 0
322 1 21.603396843207587 13.597561760184812 13.700966198983142 -1 0 0
326 1 1.1351632220274723 14.89051185513744 14.993322165437633 0 0 0
330 1 5.357258026391014 13.677896810394824 13.43633814674059 0 0 0
334 1 6.707192873171969 14.883993157580719 14.903018186866435 0 0 0
338 1 10.997627605648471 13.831610512018539 13.759664226817815 0 0 0
342 1 12.393683406153025 15.214489068197956 14.92909217837643 0 0 0
346 1 16.42790665342652 13.514079636325317 13.438292907258889 0 0 0
350 1 17.709992043774363 15.223754928514813 14.781153145970816 0 0 0
355 1 2.547565434585801 16.264888504179325 13.491144228105089 0 0 0
359 1 4.0077350031334165 17.58844905328086 14.8537760213673 0 0 0
363 1 8.244301904070513 16.29790171850241 13.489898817597458 0 0 0
367 2 9.553342582261385 17.71139113238329 15.034228983684484 0 0 0
371 1 13.726028582812102 16.53037094995519 13.456285482116396 0 0 0
375 1 14.884583338574584 18.006523048204006 15.085767304962843 0 0 0
379 1 19.075293205767533 16.44776472070166 13.533210934566322 0 0 0
383 1 20.45145508912954 17.667910362566918 15.106389426698005 0 0 0
354 1 0.16323037811948946 19.114233016760107 13.867745101717732 0 0 0
358 1 1.6952151867932093 20.34894936584363 15.21686399985595 0 0 0
362 1 5.4714900595245375 18.974999024314645 13.64067193413343 0 0 0
366 1 6.778107617424982 20.48129937459442 14.95273884438718 0 0 0
370 1 10.985332707206917 18.994835638723643 13.860351756362887 0 0 0
374 1 12.460587751776057 20.534492837308594 15.044597414515948 0 0 0
378 1 16.194971538843866 18.894338709102833 13.587040915901499 0 0 0
382 1 17.687878116338293 20.234583715565 14.916050355108409 0 0 0
385 1 21.777418544293294 21.705810052770317 16.361535788131526 -1 -1 0
388 1 2.355603104144066 2.6575482454694566 16.077290193666204 0 0 0
389 1 1.2585746577439645 1.269483458376298 17.732856221883324 0 0 0
393 1 5.4209794089632535 21.718230712725344 16.359027461641983 0 -1 0
396 1 7.982505521291016 2.6389701195291946 16.317001533731062 0 0 0
397 1 6.848863601288712 1.2305039731572738 17.730943516054023 0 0 0
401 1 10.979496494570402 0.08558232860424626 16.387028124742226 0 0 0
405 1 12.20281493155146 1.4703375121158575 17.771284340866494 0 0 0
404 1 13.646375013011614 2.5766075421204824 16.271746526449064 0 0 0
409 1 16.358670495175442 0.040152348957829785 16.320621483904294 0 0 0
413 1 17.86355442832263 1.2569995952597404 17.631006075383848 0 0 0
412 1 18.923418225411627 2.837606561418117 16.229985390271974 0 0 0
417 1 21.54522813243383 5.592408232352076 16.53720239967011 -1 0 0
392 1 3.802037582381396 3.8284801807658435 17.497520096223848 0 0 0
425 1 5.259739363040424 5.254911581564499 16.240769473615025 0 0 0
400 1 9.512779072617318 3.85857287833541 17.57098916770412 0 0 0
433 2 10.845554243321663 5.291930423376999 16.462260133317795 0 0 0
408 1 14.954569806859002 3.8924817920786383 17.615259653026946 0 0 0
441 1 16.323792119504798 5.438168790225099 16.487897619273852 0 0 0
416 1 20.369247212979662 4.188306284900072 17.639386879823668 0 0 0
420 1 2.6469607597000984 8.280696718741842 16.35890318757873 0 0 0
421 1 1.391216439436853 6.779499571031372 17.934571587049707 0 0 0
428 1 7.956792801034901 8.086030020024513 16.413909391278743 0 0 0
429 1 6.5264771259028835 6.592292079385039 17.691038600688998 0 0 0
437 1 12.217737610644171 6.71661000396638 17.916288745850576 0 0 0
436 1 13.567419773185659 8.183386316860027 16.47224828567573 0 0 0
445 1 17.715033732766337 6.860525410208588 17.718757837805864 0 0 0
444 1 18.98798834902565 8.266728173725962 16.487295272399727 0 0 0
449 2 21.46057796732404 10.892190470373938 16.34611495450984 -1 0 0
453 1 1.1118111712991994 12.42050408258335 17.697264968297794 0 0 0
424 1 4.073917258753365 9.75609839277015 17.565007816384103 0 0 0
457 1 5.5724227318699295 11.199848465643708 16.337577107163156 0 0 0
461 1 6.949224317901658 12.355799342097956 17.78609596271375 0 0 0
432 1 9.40547043195119 9.611491952050159 17.654348182758724 0 0 0
465 1 10.870938104326099 11.118715516674362 16.50498111940696 0 0 0
469 1 12.34901554482412 12.53385969751674 17.722755003060563 0 0 0
440 1 15.051319524127296 9.778696171810143 17.600261255801243 0 0 0
473 1 16.379040701207327 11.082106514484495 16.1909629800349 0 0 0
477 1 17.514426007833062 12.408656212182416 17.64405705112142 0 0 0
448 1 20.31293787342415 9.529011885168227 17.8993143504187 0 0 0
452 1 2.630974972986674 13.519589167786886 16.30800750664193 0 0 0
456 1 4.076637221089052 14.891102189050201 17.611627766662775 0 0 0
460 1 7.955958620591664 13.80920694269148 16.1719497268178 0 0 0
464 1 9.432062125422304 15.05523062135568 17.394510791751742 0 0 0
468 1 13.772668334691797 13.930905874381612 16.15692272344835 0 0 0
472 1 14.756707193068342 15.34930550069912 17.64011464362404 0 0 0
476 1 18.97151442402451 13.918759197646306 16.227244848342732 0 0 0
480 1 20.25873734876821 15.202996152108959 17.647966889236613 0 0 0
481 1 21.689629222955883 16.246695657553293 16.330401915886423 -1 0 0
485 1 1.2874600595459427 17.421418326092642 17.79507536140615 0 0 0
489 1 5.458853320948413 16.386347812194558 16.255174473598334 0 0 0
493 1 6.821274396882111 17.73311905041713 17.420148917478205 0 0 0
497 1 11.036521762322463 16.493327687528524 16.396018361466766 0 0 0
501 1 12.160464525968225 18.021020870783964 17.742561772191394 0 0 0
505 1 16.28018380623387 16.465923850774356 16.19204626855024 0 0 0
509 1 17.409480011567315 17.898645890289103 17.560056240881345 0 0 0
484 1 2.7442143051846615 18.766762334486852 16.537910616972056 0 0 0
488 1 3.9597239852737127 20.193516738311036 17.735652689618135 0 0 0