LAMMPS data file via write_data, version 29 Aug 2024, timestep = 10000000, units = metal

512 atoms
2 atom types

0 21.76561954 xlo xhi
0 21.76561954 ylo yhi
0 21.76561954 zlo zhi

Masses

1 28.0855
2 12.011

Atoms # atomic

1 1 0.19925826511497685 0.17057449064037183 0.048430403494626975 0 0 0
2 1 0.15418184637296065 2.877648901403434 2.9623205448231946 0 0 0
3 1 2.6944757512854496 0.14605254351249686 2.836520521911251 0 0 0
4 1 2.8010204857535332 2.8208494881926476 21.587650466739376 0 0 -1
5 1 1.4705478646490637 1.5975168897986125 1.363507843980181 0 0 0
9 1 5.405472340378544 0.10258351075752617 0.1587315641826877 0 0 0
10 1 5.503712288842206 2.954019419254006 2.573057563476504 0 0 0
11 1 8.026750899970992 21.68450834844216 2.731538038518835 0 -1 0
12 1 8.306368399933381 2.6154555524720355 0.0755193880924336 0 0 0
13 1 6.791045899637659 1.4209574014258182 1.3901184857595066 0 0 0
17 1 10.799522114811705 21.619622703336216 0.1138502063131685 0 -1 0
18 1 10.906028757223796 2.384628450782617 2.6973615994869076 0 0 0
21 1 12.343098004580133 1.098842291240197 1.4173439054916597 0 0 0
19 1 13.73534715834016 21.756461642871802 2.9644585419227996 0 -1 0
20 1 13.545203026217282 2.4479225193827165 0.052125073201013006 0 0 0
25 1 16.561166989912277 21.684227138655498 0.11337635821355257 0 -1 0
26 1 16.30858575737407 2.8266100568276586 2.9583740771234437 0 0 0
29 1 17.713156674491763 1.4807108761605623 1.507643598367362 0 0 0
27 1 19.217667893311845 0.027764645792884478 2.7618212494014376 0 0 0
28 1 19.149539604100582 2.76026461342172 0.044433094852157316 0 0 0
33 1 0.04278934486726762 5.591830127180171 21.690697910322772 0 0 -1
35 1 2.8275064403428067 5.418043403695242 2.649446906703575 0 0 0
8 1 4.1995719679641885 4.059663097040885 1.205601129209974 0 0 0
41 1 5.581221874562906 5.522067175708812 21.74999095187884 0 0 -1
43 1 8.457711114797053 5.304806610454365 2.5440838174921403 0 0 0
16 1 9.922674276994453 3.8903149749757624 1.3512813498517258 0 0 0
49 2 10.865987235964361 5.346676339790372 0.24660804607231568 0 0 0
24 1 14.963622820910798 4.120292025185487 1.398322672930774 0 0 0
51 1 13.599698978713908 5.296583929705017 2.679464787230786 0 0 0
57 1 16.414988698669635 5.473194041585311 0.14505656521574492 0 0 0
32 1 20.575941846700317 4.092435421819589 1.4885985176522725 0 0 0
59 1 19.310423703247455 5.567187027540788 2.7946861738288766 0 0 0
34 1 21.73389285543854 8.221406390098144 2.620611521183838 -1 0 0
36 1 2.7122567726305102 8.163902682894213 21.763475795599327 0 0 -1
37 1 1.5293483161412456 6.829567962507659 1.445548537213662 0 0 0
42 1 5.669508952082567 8.155953192882118 2.7801201149177257 0 0 0
44 1 8.281400508757514 8.333698495086844 0.16069157760399702 0 0 0
45 1 6.850944044121609 6.943165641092082 1.4729336817517393 0 0 0
50 1 10.894154777675766 8.138087983944306 2.5979767967246574 0 0 0
53 2 12.27769130726492 6.836614475535699 1.3925207158685307 0 0 0
52 1 13.564954545176414 8.20831593802498 0.09579178507825249 0 0 0
58 1 16.411052681716594 8.061350671342364 2.536661877185741 0 0 0
61 1 18.042083878030486 6.733565739260629 1.3936415945360714 0 0 0
60 1 19.127198304368658 8.142795075165798 0.009732785746088274 0 0 0
65 1 21.69510086939867 10.75980184190467 21.657301126439954 -1 0 -1
67 1 2.738405759068457 10.864680231144396 2.5779186809425054 0 0 0
69 1 1.1885576257347057 12.213441029790394 1.3280080834328516 0 0 0
40 1 4.231672253908968 9.57169894123716 1.4494544047042477 0 0 0
73 1 5.447642030392157 11.038782599693048 0.11287522805715876 0 0 0
75 1 8.302091331937897 11.00977642862164 2.5388031057176947 0 0 0
77 1 6.730248629551542 12.4138962048396 1.203535814590754 0 0 0
48 1 9.715274904172716 9.726457222804322 1.3606494638861455 0 0 0
81 1 10.937659711594417 11.00431827105274 21.749193202249216 0 0 -1
85 1 12.296807221401634 12.331711082891253 1.255849906816723 0 0 0
56 1 15.051817560517692 9.601173123902988 1.2790998968102134 0 0 0
83 1 13.601158442916894 10.861622077990523 2.6480187469819643 0 0 0
89 1 16.26076199723 10.884804647097118 21.53314200617285 0 0 -1
93 1 17.59489955337772 12.272698941977987 1.1690482096674775 0 0 0
64 1 20.35040335548671 9.528182383260264 1.2367709849966029 0 0 0
91 1 19.101471752883874 10.912178457319683 2.5165289138613587 0 0 0
66 1 21.694675548937564 13.36273919786921 2.619536938882259 -1 0 0
68 1 2.649541027907999 13.397122972782139 0.14698149186049095 0 0 0
72 1 4.036592944783747 14.912795688344588 1.2607230817402673 0 0 0
74 1 5.428861158027123 13.78799718911279 2.6795005590079013 0 0 0
76 1 8.109350037429067 13.641834417012928 21.67325916241842 0 0 -1
80 1 9.449989476413956 14.956256499359531 1.3465220870232808 0 0 0
82 1 10.946138215036381 13.718575821657286 2.781497419235381 0 0 0
84 1 13.781534692221836 13.54502179514874 21.73447552113885 0 0 -1
88 1 15.111975231894146 15.097403218580359 1.3252377527623678 0 0 0
90 1 16.4182988789014 13.546291752530932 2.4728917994294806 0 0 0
92 1 19.036700737674916 13.564237915457518 21.764687293734735 0 0 -1
96 1 20.482040090407068 14.823682367012802 1.385591811496791 0 0 0
97 1 0.18160875917158395 16.229317006190218 0.08191659771077246 0 0 0
99 1 2.483200246713849 16.213045893917144 2.54628220361082 0 0 0
101 1 1.2652599638098774 17.87567965145319 1.3523272089523242 0 0 0
105 1 5.543233719586552 16.364207285133865 0.036033385682914344 0 0 0
107 1 8.23986590214222 16.475703486072703 2.7700583344325582 0 0 0
109 1 6.530071998032235 17.7939650067646 1.516017070546312 0 0 0
113 1 10.985915051625067 16.318728160780715 0.10316276497575164 0 0 0
117 1 12.25006535563205 17.772978575979632 1.3790166483591975 0 0 0
115 1 13.729356677896702 16.470060981000604 2.689197064908794 0 0 0
121 1 16.392682685377128 16.398712601459735 21.62425912588159 0 0 -1
125 1 17.823491950107947 17.62761554025223 1.33487486302858 0 0 0
123 1 19.203460373868023 16.09184622475943 2.8161230745860446 0 0 0
98 1 21.676102754016238 19.097538334082465 2.7204488313971082 -1 0 0
100 1 2.9299330896140865 19.08105257852232 0.17087287917582827 0 0 0
104 1 4.037770969249845 20.546409835337258 1.6311733618676552 0 0 0
106 1 5.170383241704412 19.138552810090154 3.0382520929656702 0 0 0
108 1 8.151763172059713 18.89022137325025 0.10447772494311006 0 0 0
112 1 9.487995328979046 20.291308779113255 1.3935819588107168 0 0 0
114 1 11.02548143450377 19.15311520321663 2.6554226202843014 0 0 0
116 1 13.809871181332648 19.14592207388146 0.05822856183562619 0 0 0
120 1 15.10685290488927 20.627765926310275 1.4604888830612126 0 0 0
122 1 16.39028806143701 19.010273925445336 2.604696843506935 0 0 0
124 1 19.1000807378719 19.112941049558113 0.16528560054666835 0 0 0
128 1 20.502735539077722 20.470049810181163 1.3043532794153776 0 0 0
129 1 0.09356347688223313 0.04413593055913817 5.661951677933882 0 0 0
132 2 3.0455525404108745 3.032266418491937 5.359553970029256 0 0 0
7 1 4.098266228225272 1.560543583241197 4.037041069526985 0 0 0
137 1 5.356649197222773 0.2203393193855036 5.5145245640145015 0 0 0
140 1 8.181000590781716 2.7886585996221758 5.530838120003242 0 0 0
15 1 9.45485952265167 1.2111333662851824 4.106216121424341 0 0 0
145 1 10.729165205189167 21.536956526875723 5.557198528396298 0 -1 0
23 1 14.880152642679853 1.5228064940723407 4.235474551281039 0 0 0
148 1 13.60575191016699 2.8087454460486705 5.537102690566969 0 0 0
153 1 16.57877879363447 0.16437227574513744 5.369253307894318 0 0 0
31 2 20.517416934181806 1.559491082591799 4.158804697958682 0 0 0
156 1 19.019358773716306 2.8060129360569483 5.384973400259334 0 0 0
6 1 1.4652434882062466 4.363690492698404 4.1504986324549 0 0 0
161 1 21.667516665417672 5.683945936984288 5.5627553576151065 -1 0 0
169 1 5.658737486669488 5.5404204719612915 5.586328585065728 0 0 0
14 1 6.863304008916669 4.06038809519175 3.998282155847642 0 0 0
22 1 12.165343697153993 3.9855103598977535 4.07175338604929 0 0 0
177 1 10.76917458714332 5.431485129078487 5.342854716678093 0 0 0
30 1 17.79919998371759 4.33568514231906 4.195819247413973 0 0 0
185 1 16.441247653763785 5.402278754062185 5.751590059322705 0 0 0
164 1 2.90230485018351 8.077494817859039 5.215535528662407 0 0 0
39 1 4.251849265615142 6.731894521010174 3.9818514915362755 0 0 0
172 1 8.394380055450354 8.202133682082826 5.178778875570428 0 0 0
47 1 9.590843089930743 6.652854034389092 3.8643539989714037 0 0 0
55 1 15.190355655123625 6.537078703989924 4.1039733715952185 0 0 0
180 1 13.761649837326605 8.0644169511979 5.206881709792209 0 0 0
63 1 20.468268350192165 7.004713807137881 4.063614468749221 0 0 0
188 1 19.080254304824496 8.252255159472604 5.66719605061154 0 0 0
38 1 1.4577600183636579 9.371858130484691 4.058798171182298 0 0 0
193 1 0.07188687794956325 10.66452337827616 5.432352163561027 0 0 0
71 1 4.015004528964406 12.219549016329573 3.940825303811157 0 0 0
201 1 5.417011250775983 10.775292413246934 5.394949838512917 0 0 0
46 1 6.882786358982212 9.568681072930362 4.000392822740458 0 0 0
54 1 12.272529011743272 9.376582971002636 3.9667939587301406 0 0 0
79 1 9.741033746777202 12.216391166590371 4.14383821566559 0 0 0
209 1 10.999019442900506 10.741532987528037 5.363205891640157 0 0 0
87 1 15.193214995302895 12.10044564075556 3.995667170630962 0 0 0
62 2 17.637719499981454 9.450761521928833 3.97665175917896 0 0 0
217 1 16.36294707553655 10.63810416859733 5.45465037991539 0 0 0
95 1 20.452034848295327 12.063190951530787 4.0963440486710825 0 0 0
70 1 1.0787290539354835 14.889912044311375 4.001244106136703 0 0 0
196 1 2.634492096390419 13.73626404978381 5.305049076094629 0 0 0
78 1 6.853347164125826 15.03493966352128 4.160028443770496 0 0 0
204 1 8.24037584747025 13.508634549021684 5.37688069929791 0 0 0
86 1 12.42321359641512 15.060640863207707 4.221858825547677 0 0 0
212 1 13.862894983879103 13.487425275383524 5.4627905577317675 0 0 0
94 1 17.646462080986584 14.956046939880588 4.155808212614043 0 0 0
220 1 19.17310591940813 13.589717508065153 5.454603684615465 0 0 0
225 1 0.09626645166540045 16.22777463363048 5.498903295382216 0 0 0
103 1 3.753577064501111 17.711863327326395 4.081014055417592 0 0 0
233 1 5.247708456257477 16.359969280593983 5.44641514371334 0 0 0
111 1 9.505613635688277 18.026312624271853 4.082383508962265 0 0 0
241 1 10.846856690246785 16.444163687657387 5.416653718613375 0 0 0
119 1 15.115893441073158 17.75541604255386 4.1232239014352325 0 0 0
249 1 16.311717422233958 16.339700877857027 5.433446583150173 0 0 0
127 1 20.57697120116206 17.495163576359634 4.026289277673522 0 0 0
102 1 1.263793257532155 20.583854228617096 4.055466576608902 0 0 0
228 1 2.595545777177032 19.127603960100828 5.546517471418134 0 0 0
110 2 6.609735413104272 20.525189302901648 4.179507605046219 0 0 0
236 1 7.933757240267152 19.027026939760916 5.371339002024709 0 0 0
118 1 12.189179943899148 20.436681294606704 4.1918468152118455 0 0 0
244 1 13.70972363680205 19.101467140616496 5.47283078405938 0 0 0
126 1 17.780328143129548 20.407346257221235 3.8578910020627393 0 0 0
252 1 19.133315104973388 18.845035295085232 5.3480044813419845 0 0 0
130 1 0.09737430536103367 2.7353378920432387 8.092412764219754 0 0 0
131 1 2.4326854410434504 0.042923134308895085 8.061647401543045 0 0 0
133 1 1.5427689293447244 1.6156316684030703 6.643456608607952 0 0 0
138 1 5.421770519127163 2.764451051975189 8.435820612169882 0 0 0
139 1 7.878555352277945 21.760887480937114 8.298747594120668 0 -1 0
141 1 6.82229100655905 1.4729560879203596 6.8442636406389346 0 0 0
146 1 10.733291838526206 2.5574026324395738 8.070984025677147 0 0 0
149 1 12.192237712473736 1.2343700320252577 6.658034710305958 0 0 0
147 1 13.463205546319445 21.60867844869121 8.020977686056598 0 -1 0
154 1 16.420741688932114 2.7141727498969646 8.203018453185004 0 0 0
157 1 17.844612708915818 1.428589294829763 6.870502835348402 0 0 0
155 1 19.198725120493663 21.69796515604683 8.281535051604356 0 -1 0
163 1 2.6773619612567265 5.583645131002381 7.966154106294431 0 0 0
136 1 4.2290217083418185 4.33938135244474 6.907825827581442 0 0 0
171 1 8.21729908542421 5.531341317971009 8.183387610711463 0 0 0
144 1 9.631041613466092 4.120123499777086 6.685745747853568 0 0 0
152 1 15.023190047155444 4.07922267499999 6.961270484447111 0 0 0
179 1 13.5922444441988 5.365242823179981 8.219919862179262 0 0 0
160 1 20.342756910877423 4.11135236912056 6.832821326130996 0 0 0
187 1 19.154599990140923 5.440812981377327 8.310348583637158 0 0 0
162 1 21.76249572165937 8.044437100125212 8.226289326505233 -1 0 0
165 1 1.390188071394074 6.983907255483015 6.67013919530695 0 0 0
170 1 5.537489956935775 8.338412243775396 8.358274123009336 0 0 0
173 2 6.971541314992106 7.136357436122589 6.8385843485486175 0 0 0
178 1 10.901149342928614 8.099313638945672 8.055711689746612 0 0 0
181 1 12.294537094387826 6.755838270567709 6.694779251034434 0 0 0
186 1 16.420118843111325 8.073657685330728 8.235027580725575 0 0 0
189 1 17.724806897139008 6.754420092299753 6.8199745070129945 0 0 0
195 1 2.5156279463085727 10.736809615646564 8.100861503143989 0 0 0
197 1 1.3474541981034196 12.072807982367948 6.6209584636642145 0 0 0
168 1 4.020661602062894 9.492108718064891 6.7601831560039125 0 0 0
203 1 8.051929245615236 10.859626110779226 7.985761630773127 0 0 0
205 1 6.688326232368961 12.171249129524004 6.7247211884896085 0 0 0
176 1 9.54866357457906 9.395265327458304 6.725433705978995 0 0 0
213 1 12.250973936333935 12.279801121903473 6.775914571522524 0 0 0
184 1 14.967923938661697 9.280216180290632 6.911710564292487 0 0 0
211 1 13.419893199333334 10.747600057863094 8.05515560651056 0 0 0
221 1 17.630200709926932 12.225418825244862 6.784282108080517 0 0 0
192 1 20.422341638169367 9.53261272420452 7.059406193050732 0 0 0
219 1 18.948465961595257 10.99941512027553 8.171783726291283 0 0 0
194 1 21.637256049907776 13.585260873079292 8.083584846365817 -1 0 0
200 1 4.076244556637373 14.796808138513383 6.998409080476527 0 0 0
202 1 5.634627891402543 13.496948265811563 8.336568304069202 0 0 0
208 1 9.548289108768495 14.972372058928357 6.6152619964292905 0 0 0
210 1 10.840792069784248 13.675647904379659 8.13326816393094 0 0 0
216 1 14.980161884666368 15.117327367249446 6.884221748592978 0 0 0
218 1 16.29141367182105 13.513764557776176 8.070563283236664 0 0 0
224 1 20.129532203766804 15.008937004591893 6.927713530859001 0 0 0
227 1 2.642867180291735 16.262363209482967 8.207218027435266 0 0 0
229 1 1.4213383521411673 17.63507532580206 6.8055755026337605 0 0 0
235 1 8.210749578379303 16.41219607352572 8.160366962155647 0 0 0
237 1 6.574021502990273 17.778066661397673 6.845618796374858 0 0 0
245 1 12.015904851465242 17.61796284561973 6.889632951408975 0 0 0
243 1 13.69925380725736 16.29611157257502 8.197727685982171 0 0 0
253 1 17.70302109168074 17.787686484813793 6.6205668467022125 0 0 0
251 1 18.823928329814688 16.283746808521787 8.291198546379881 0 0 0
226 1 21.74095299380599 18.920664512392964 8.029100373959327 -1 0 0
232 1 3.8801149944666053 20.655522769512253 6.670452985247638 0 0 0
234 1 5.088243399596455 19.04973431917446 7.899086677254337 0 0 0
240 1 9.25150547180632 20.182315907349224 6.946428565118837 0 0 0
242 1 10.78042016064892 19.0866591294819 8.17818150507217 0 0 0
248 1 15.159734841449797 20.501315678775413 6.693583414222523 0 0 0
250 1 16.34544257076061 18.92932748112553 8.060139231451318 0 0 0
256 1 20.36433882565891 20.348217807092364 6.782780718003244 0 0 0
257 1 0.013142224948035464 21.578309322214967 10.790599326277484 0 -1 0
260 1 2.641646851222907 2.7966379965776147 10.86818715670948 0 0 0
261 1 1.3764473612066712 1.3318335995149937 12.079386206183642 0 0 0
135 1 3.8238661377851115 1.4401559320681112 9.616954579206267 0 0 0
265 1 5.134816682213043 21.700342854190676 10.90654543651174 0 -1 0
268 1 8.04898784115804 2.8639012829944397 10.99387603847256 0 0 0
269 1 6.642606857818416 1.3710416739259794 12.23072848239872 0 0 0
143 1 9.402751780507087 1.333759025344891 9.455476996485519 0 0 0
273 1 10.794214630301397 0.019365565124533496 10.93671681910044 0 0 0
277 1 12.109347089897115 1.3517804579433756 12.340239513637913 0 0 0
151 1 14.868654243795874 1.228854437815649 9.553522425565912 0 0 0
276 1 13.410418741646556 2.6245917223803414 11.011406512205753 0 0 0
281 1 16.42131647943536 21.696898194868158 10.753788166999374 0 -1 0
285 1 17.701989499263412 1.2999566153666238 12.08475457837993 0 0 0
159 1 20.615639688600044 1.3099044651956169 9.564151630727599 0 0 0
284 1 19.07843443546909 2.694492516216723 10.721221901019337 0 0 0
134 1 1.4769433293378766 4.118447368773127 9.44277109529304 0 0 0
289 1 0.24575223121617823 5.526779446253535 10.994864172259664 0 0 0
264 1 4.033721434754824 4.1209331232630735 12.152059665178145 0 0 0
297 1 5.517744256386927 5.645116545609008 10.978531453923281 0 0 0
142 1 6.872434353870621 4.274782123502678 9.509460608715772 0 0 0
150 1 12.135727908426416 3.9511617445162757 9.47866009130957 0 0 0
272 1 9.654229206488308 4.079432532614907 12.483784369929575 0 0 0
305 1 10.845524185375739 5.446537420038784 10.758912033542845 0 0 0
280 1 14.945919559292717 3.910514498706704 12.27911311590974 0 0 0
158 1 17.82341255060104 4.092697929464546 9.495034874461721 0 0 0
313 1 16.32698916557928 5.265061222990435 10.871746325939023 0 0 0
288 1 20.315162595457362 4.079726062977189 11.988664729679417 0 0 0
292 1 2.603556710654811 8.327452629272829 10.950449868227679 0 0 0
293 1 1.3410800548129915 6.9535860564905505 12.390694151094516 0 0 0
167 1 3.979525752113031 6.934233655635317 9.497305415555324 0 0 0
300 1 8.195202281655213 8.293658109324587 10.91500173615396 0 0 0
301 1 6.931521119081759 6.876375031316062 12.364546710387637 0 0 0
175 1 9.615259046458426 6.876251961110454 9.547882533997502 0 0 0
309 1 12.136209728307675 6.673844112671627 12.302563945302868 0 0 0
183 1 14.872384435632238 6.780951667859209 9.546911491887235 0 0 0
308 1 13.4204874486392 8.013551356830565 11.003322043565495 0 0 0
317 1 17.656967512397724 6.7121587976592245 12.209394628682348 0 0 0
191 1 20.47011703128396 6.815187423525177 9.650749827086495 0 0 0
316 1 18.933386356102954 8.238456200096254 10.769270532940748 0 0 0
166 1 1.3955166411585578 9.44058062475192 9.53518715055081 0 0 0
321 1 0.04469810854003876 10.844273602470942 10.991778902555293 0 0 0
325 1 1.4812512771667148 12.333687195263758 12.097658663265717 0 0 0
199 1 4.174946975932842 12.102619805873491 9.434480113101598 0 0 0
296 1 3.955258424961794 9.69955155883267 12.226806606268642 0 0 0
329 1 5.384352066399646 10.918803133308243 10.991091314376007 0 0 0
174 1 6.8715729048799234 9.710543494945133 9.70049089086045 0 0 0
333 1 6.994997801558622 12.44042349666149 12.112953910773047 0 0 0
182 1 12.188470968236006 9.39915635781782 9.488771690200544 0 0 0
207 1 9.516014275957867 12.106150324519598 9.35958972450772 0 0 0
304 1 9.4024564124141 9.54163932768511 12.416249650705 0 0 0
337 1 10.770194419286328 10.796597730459961 10.797580626054472 0 0 0
341 1 12.277717509509937 12.19244472320352 12.061309690872466 0 0 0
215 1 14.825209676700677 12.189195582017954 9.273084392181907 0 0 0
312 1 14.969617021809661 9.4548334467269 12.23014983217747 0 0 0
190 1 17.641286091787848 9.571262374617127 9.450817321970575 0 0 0
345 1 16.199794266247558 10.79624330862482 10.728502275122302 0 0 0
349 1 17.52675380029248 12.186940881640096 12.175557946891734 0 0 0
223 1 20.37117424106403 12.243091710956742 9.562949593293421 0 0 0
320 1 20.323796337992917 9.578554247551265 12.397129258624007 0 0 0
198 1 1.2926703575494036 14.90652655002411 9.433744759797875 0 0 0
324 2 2.8161214985746774 13.601422394511662 10.7634218305071 0 0 0
328 1 3.892008806229894 15.026899741754217 12.265439580468362 0 0 0
206 1 6.89947577323467 15.002849201180219 9.489250631172707 0 0 0
332 1 8.462084806159538 13.769131195181103 10.731577705414704 0 0 0
214 1 12.33712345036557 14.995481209292716 9.498539148423944 0 0 0
336 1 9.783629925876323 15.108193773609408 12.267254411458806 0 0 0
340 1 13.551137179190217 13.541484116616578 10.679337641921842 0 0 0
344 1 14.76979472873376 15.143964471875101 12.153064459622176 0 0 0
222 1 17.45311958268621 14.953430427805072 9.481637588119156 0 0 0
348 1 18.86353085684 13.59478860771942 10.925233994958262 0 0 0
352 1 20.467870813444446 14.777084159160369 12.167150916282575 0 0 0
353 1 21.533674847501874 16.259447777046653 10.806658691397848 -1 0 0
357 1 1.2457231287408133 17.536499423868374 12.014797129188064 0 0 0
231 1 4.084973331122623 17.515773347285467 9.33649184343256 0 0 0
361 1 5.481389677938326 16.232798876362203 10.777713502831423 0 0 0
365 1 6.682055844119392 17.49683955272137 12.380660868360868 0 0 0
239 1 9.491416343327582 17.778209597587225 9.584968443968718 0 0 0
369 1 11.040545608834043 16.618198908845187 10.859094351166595 0 0 0
373 1 12.229762626283566 17.907780286682346 12.39537427258043 0 0 0
247 1 14.935454729229454 17.75538166728024 9.449421509382926 0 0 0
377 1 16.25400939298756 16.29252981719166 10.900033173253682 0 0 0
381 1 17.72408703750025 17.607793436339932 11.972325285557005 0 0 0
255 1 20.39006936580638 17.65219019111646 9.409883315009955 0 0 0
230 1 1.2293877847811332 20.286821664733672 9.419282182234499 0 0 0
356 1 2.631272172512877 18.759569905013567 10.633346327439352 0 0 0
360 1 3.8167978843939445 20.21687185247516 12.25431157264338 0 0 0
238 1 6.419818889066317 20.263112724818857 9.566477681149102 0 0 0
364 1 7.869738210487845 19.005603652822465 10.961162231282916 0 0 0
246 1 12.195783877185493 20.458693055898735 9.47394879411422 0 0 0
368 1 9.522755498042592 20.35683534587111 12.272223668004056 0 0 0
372 1 13.643869773833211 19.12178235904622 10.924204768405119 0 0 0
376 1 15.024859508027596 20.476589559194213 12.143482227174815 0 0 0
254 1 17.665996887163136 20.297706868088323 9.47501553990911 0 0 0
380 1 19.0799899700764 18.98099541028754 10.718356994696551 0 0 0
384 1 20.337834808543427 20.216218056987238 12.147264663545563 0 0 0
258 1 21.710853776079265 2.691090793056286 13.210916903340054 -1 0 0
259 1 2.4619825709285093 21.564441604499045 13.600322791822911 0 -1 0
263 1 3.917418941801183 1.2098483623292868 14.835675743511057 0 0 0
266 1 5.403024052910784 2.7522695934249954 13.706378310707127 0 0 0
267 1 8.035530016165513 0.10060829769591144 13.555401982719497 0 0 0
271 1 9.32834818035102 1.331351224808811 15.139039159649515 0 0 0
274 1 10.755062251926907 2.5043947849867316 13.836149205587953 0 0 0
275 1 13.758639740448242 0.13008460343837114 13.51204417742032 0 0 0
279 1 15.004429610537981 1.4688769845666845 15.029647639780576 0 0 0
282 1 16.446171509472734 2.5359873403868693 13.391796618887993 0 0 0
283 1 19.144657588323696 21.712016269647236 13.502221322218526 0 -1 0
287 1 20.449375765985742 1.3893386938677739 14.734913701332815 0 0 0
262 1 1.2361819785397707 4.1155112622948655 14.811733373874047 0 0 0
291 1 2.7865251090850367 5.374351142886206 13.682765362627027 0 0 0
270 1 6.9216716126619735 4.188121982125704 14.999131302057291 0 0 0
299 1 8.118995564459269 5.453352759836673 13.615152588383898 0 0 0
278 1 12.02946266098711 3.9874106616271 15.244895033205145 0 0 0
307 1 13.542117060664225 5.208957245042219 13.721928114692103 0 0 0
286 1 17.659189201574232 3.935543765757521 14.75053687568825 0 0 0
315 1 19.126574937813903 5.29841571308957 13.439580698696268 0 0 0
290 1 21.51881462122768 8.004174048141712 13.747814289290812 -1 0 0
295 1 4.110114230382656 6.834266170719694 14.895331606793542 0 0 0
298 1 5.46311882153105 8.29314741898675 13.49675330634602 0 0 0
303 1 9.507806105799595 6.721233153838544 15.128192787490075 0 0 0
306 1 10.729945987184497 8.013692282684046 13.669945266527632 0 0 0
311 1 14.973410042082426 6.6899488127161515 15.119123004417016 0 0 0
314 1 16.293087748279863 7.99588574532656 13.614418012962249 0 0 0
319 1 20.096355626385204 6.731511876267231 15.010301315730525 0 0 0
294 1 1.182462145564492 9.484761703826146 15.012786714250838 0 0 0
323 1 2.5998652527941286 11.005329971755032 13.685269222179512 0 0 0
327 1 3.9201657185059187 12.268998367169054 15.037718734011218 0 0 0
302 1 6.85115389561615 9.698873030832306 15.050760746817978 0 0 0
331 1 8.185881363129704 11.004940179035662 13.758050521806839 0 0 0
310 1 12.314229194619905 9.529772151292464 14.878042589959348 0 0 0
335 1 9.694042146297939 12.357893683129427 15.125889021395936 0 0 0
339 1 13.612077210850185 10.97927905314057 13.591860871496834 0 0 0
343 1 14.866469534665123 12.351344349292736 14.974200953649428 0 0 0
318 1 17.663344340824736 9.427887432101896 15.064066972985621 0 0 0
347 1 18.869949572449514 10.767631646547615 13.752679246529164 0 0 0
351 1 20.200339700655388 12.175385669566058 14.781714678712648 0 0 0
322 1 0.0469089108085777 13.527440606152801 13.55158155246361 0 0 0
326 1 1.3567288270814797 14.899844802609175 14.955822272940415 0 0 0
330 1 5.396508362774364 13.596867343863654 13.584629414200402 0 0 0
334 1 6.771960066734285 14.97373476202315 15.026977560134355 0 0 0
338 1 10.949719513590715 13.551783771523644 13.617292958025006 0 0 0
342 1 11.947943148250479 15.264114564858781 15.008436039929096 0 0 0
346 1 16.27353820086941 13.799764536611617 13.510922278390883 0 0 0
350 1 17.78833893354187 15.056991394474977 14.98120516459608 0 0 0
355 1 2.8453261288464833 16.393400707589446 13.72435098126492 0 0 0
359 1 4.027813036045096 17.558169531202527 15.14204322514424 0 0 0
363 1 8.117187209434903 16.411534211424566 13.790001033280047 0 0 0
367 1 9.36803614459938 17.868200436391938 15.1644506540127 0 0 0
371 1 13.377735998541272 16.450189457375846 13.648715622210375 0 0 0
375 1 14.894314355703537 17.854451137474832 14.970992491139127 0 0 0
379 1 19.025477423813882 16.254538126451287 13.423956169844868 0 0 0
383 1 20.368457698263924 17.477608112508726 14.957683266935254 0 0 0
354 1 0.026337486554952626 18.7898210149072 13.454187102088582 0 0 0
358 1 1.1633720395903393 20.18715454795371 14.968166434065125 0 0 0
362 1 5.242319755702039 18.871031988437412 13.685361815853806 0 0 0
366 1 6.666495983013293 20.426453165901904 14.910695362434778 0 0 0
370 2 10.83084293846413 19.21397122846655 13.840621205431143 0 0 0
374 1 12.308329641668752 20.61632280286021 14.96306230646613 0 0 0
378 1 16.356435262411573 19.05798062105056 13.364582775191506 0 0 0
382 1 17.68624807557835 20.406958752561415 14.83328509119206 0 0 0
385 1 21.642692312695434 0.05236094345709081 16.184729147787834 -1 0 0
388 1 2.5796837461130617 2.6695639878234734 16.165601395157882 0 0 0
389 1 1.1952269941415021 1.386750643517128 17.616810309621716 0 0 0
393 1 5.227183746022292 21.56503411870039 16.344873706193987 0 -1 0
396 2 8.00476869388046 2.6020333568994833 16.526573753658592 0 0 0
397 1 6.648251070191637 1.1717732798233325 17.740466884113342 0 0 0
401 1 10.795500491315295 0.019807348519442432 16.466646408597914 0 0 0
405 1 12.424748741201364 1.2250730052092627 17.861100922264043 0 0 0
404 1 13.729655237097994 2.757809413038313 16.554817889923463 0 0 0
409 1 16.409609173480256 0.00803240376692755 16.35640939028086 0 0 0
413 1 17.643078709491217 1.3937327186113824 17.833442339974418 0 0 0
412 1 19.042525986355834 2.6257413458886334 16.17616159137578 0 0 0
417 1 21.524892056118997 5.417300171243234 16.370637903044905 -1 0 0
392 1 4.092053803398939 4.142714138641147 17.514346471691372 0 0 0
425 1 5.569537395716325 5.500393414683212 16.356506547290916 0 0 0
400 1 9.41173140958185 3.8944712698888178 17.83345377761664 0 0 0
433 1 10.74044652199228 5.287055704165599 16.579145737979278 0 0 0
408 1 15.013136869130403 4.120590600139107 17.822315933600137 0 0 0
441 1 16.31557127473217 5.288835401836751 16.28886796839304 0 0 0
416 1 20.27217852043822 4.054845919375979 17.61212319969286 0 0 0
420 1 2.806171962220073 8.27616619077412 16.36313999281351 0 0 0
421 1 1.4660543730519422 6.799197744498209 17.484182331832553 0 0 0
428 1 8.096602602505326 8.257212171220413 16.31523173981295 0 0 0
429 1 6.879899699415543 6.736352778234456 17.97486176563925 0 0 0
437 1 12.31292990910559 6.638150386650686 17.75838898087089 0 0 0
436 1 13.492426849163218 8.109208684449621 16.28933209129176 0 0 0
445 1 17.67270871545706 6.889011568099861 17.673046729696033 0 0 0
444 1 18.948994001427817 8.173846982169275 16.240180527682003 0 0 0
449 1 21.642061265113238 11.048348542032036 16.25112258350832 -1 0 0
453 1 1.3285533819027187 12.064581492391001 17.68614619420289 0 0 0
424 1 4.273448485908472 9.518119189508264 17.616007592941813 0 0 0
457 1 5.4963335643463145 11.095038966658873 16.292436389673743 0 0 0
461 1 6.871929853632649 12.357686077655389 17.815565169948076 0 0 0
432 1 9.791520275643325 9.50643555491967 17.826783994081637 0 0 0
465 1 11.022566826802393 10.774604582895831 16.18663652464604 0 0 0
469 1 12.17839870281454 12.143323795799297 17.50281078149242 0 0 0
440 1 15.039845252582445 9.429583680572087 17.608151680877395 0 0 0
473 1 16.266261300526182 11.017418378204754 16.35650604863175 0 0 0
477 1 17.879549957559153 12.410892310790851 17.59806593331177 0 0 0
448 1 20.344446582471335 9.480040313504242 17.58400037660093 0 0 0
452 1 2.6650637935258623 13.593450329721472 16.45071969937922 0 0 0
456 1 3.8692873791626337 14.998010539368574 17.73004395274779 0 0 0
460 1 8.169333893699658 13.682230138971889 16.450597448901632 0 0 0
464 1 9.478558766698395 14.964996927491502 17.751860846609592 0 0 0
468 1 13.324554739293188 13.867418687465575 16.275253563061096 0 0 0
472 1 14.96574829933642 15.08667319277088 17.458476172827098 0 0 0
476 1 19.165490301659528 13.525800143965855 16.143326514553625 0 0 0
480 1 20.41025212275756 14.681581330835547 17.523764166065735 0 0 0
481 1 0.07035950895865788 16.195676704071477 16.350923883275982 0 0 0
485 1 1.141939323079933 17.79483246566498 17.827471014123603 0 0 0
489 1 5.255678218391651 16.167037285263362 16.300346846363215 0 0 0
493 1 6.511333566363156 17.687177390084837 17.68290518200687 0 0 0
497 1 10.646739831171699 16.585215003051964 16.548451295319143 0 0 0
501 1 12.246531490856862 17.801938304258503 17.706116888954618 0 0 0
505 1 16.311653607976133 16.49783757786844 16.237994481209483 0 0 0
509 1 17.758394446310486 17.741440843415848 17.569551072951114 0 0 0
484 1 2.511602925019339 18.903665900292662 16.51602919831271 0 0 0