LAMMPS data file via write_data, version 29 Aug 2024, timestep = 10000000, units = metal

512 atoms
2 atom types

0 21.79363031 xlo xhi
0 21.79363031 ylo yhi
0 21.79363031 zlo zhi

Masses

1 28.0855
2 12.011

Atoms # atomic

5 1 1.4826567242222946 1.2554173817960288 1.4521100460323015 0 0 0
4 1 2.6286303033077214 2.630584056613546 21.750513022703032 0 0 -1
3 1 3.055888581687261 21.70457253715999 2.8936610846817774 0 -1 0
10 1 5.697941330632923 2.6186950190965215 2.83373457682547 0 0 0
13 1 6.8409238793559854 1.2221474790254025 1.426684104339377 0 0 0
11 1 8.29397981000557 21.74143825339348 2.626082515369248 0 -1 0
12 1 8.32103516262973 2.825554262563141 0.08344136090801148 0 0 0
18 1 11.067246566643513 2.7684940442000463 2.8027047917830905 0 0 0
21 1 12.559773951027655 1.2718728275509343 1.1871524047277449 0 0 0
17 1 11.122446763475672 21.774088623001663 0.1904233498625892 0 -1 0
19 1 13.772087887104446 0.048543420357077594 2.6588745874825532 0 0 0
20 1 13.654277589876969 2.8224702470822565 21.752952509937714 0 0 -1
29 1 17.71696376325801 1.2137679943791815 1.1495495334601176 0 0 0
26 1 16.596602681311893 2.5262266945358216 2.763985028632705 0 0 0
2 1 21.789594175318424 2.533360256975253 2.70430659916274 -1 0 0
35 1 2.6951020520081155 5.130112901274184 2.3637481810512 0 0 0
8 1 4.266317961788016 3.7398073157665483 1.1762130656385366 0 0 0
41 1 5.597772474249754 5.602562303199526 0.04879176762152483 0 0 0
43 1 8.299556331047691 5.578179917212728 2.6325124244959976 0 0 0
16 1 9.712598403877672 4.060962977247269 1.4152570131765885 0 0 0
24 1 15.35518854705788 4.207227705855816 1.3164592132720105 0 0 0
51 1 13.765928927002205 5.417390888080304 2.814767159886261 0 0 0
57 1 16.483329552789133 5.667778205741586 0.00854737392427296 0 0 0
32 1 20.42002194079672 4.022159393725446 1.3606462716940424 0 0 0
59 1 19.093260267765096 5.398931885184316 2.726976793455906 0 0 0
33 1 21.766265445140995 5.629737602495576 21.76235950299671 -1 0 -1
37 1 1.551526792125347 6.772137817735369 1.2789366161516247 0 0 0
36 1 2.936255907598544 8.34974767320382 0.11303281634669204 0 0 0
42 1 5.475917290899371 8.369080616343542 2.762387304158404 0 0 0
45 1 6.842589340524054 7.005284810216801 1.3743310099711294 0 0 0
53 1 12.484700479020358 6.887033270675678 1.442259068098124 0 0 0
50 1 10.881902868326799 8.100293437284751 2.6685177419943797 0 0 0
48 1 9.66088128074568 9.487635207451248 1.211944443770988 0 0 0
52 1 13.550302252585954 8.336984250235197 21.68047212573132 0 0 -1
56 1 15.043162314812596 9.787239789246868 1.082758125563743 0 0 0
61 1 17.822605142048335 6.800744421592967 1.5596029076644264 0 0 0
58 1 16.259000045185072 8.404072050561917 2.6767553646138955 0 0 0
34 1 0.066334790400234 7.977971528307496 2.653675195744999 0 0 0
67 1 2.6026310165042514 11.063073794820793 2.6389810007619947 0 0 0
69 1 1.2402947648613765 12.33742159826919 1.1776240565948501 0 0 0
40 1 4.189984067582083 9.706444312025962 1.4112861527326872 0 0 0
75 1 8.355497098328303 10.833367877190522 2.7837321573050553 0 0 0
77 1 6.9239913593676325 12.187047403613263 1.5161940149842592 0 0 0
85 1 12.459196946917064 12.397149958648853 1.7333135787295393 0 0 0
83 1 13.910663068785237 10.823356587697122 2.7208012057829487 0 0 0
93 1 17.71841226026997 12.211536769472742 1.4217330732665978 0 0 0
89 1 16.312318325502712 11.092840907185195 21.652145142902743 0 0 -1
64 1 20.656385938005165 9.616902302649828 1.285662270920187 0 0 0
91 1 19.323898147322563 11.287209162684713 2.6077452748114185 0 0 0
66 1 0.31169540846991595 13.844157078152243 2.5892259119909604 0 0 0
68 1 2.5888979142802175 13.773309312742883 21.72160840327434 0 0 -1
72 1 4.2132592253634975 14.860906227406383 1.2382438558798408 0 0 0
74 1 5.407884210515872 13.535454843062997 2.81324008651433 0 0 0
76 1 8.186283649151434 13.46795669403697 21.776911794847095 0 0 -1
80 1 9.477213470646427 15.09139933145308 1.1562638431784948 0 0 0
82 1 10.906074932808123 13.87227199513326 2.695784873665981 0 0 0
88 1 14.815474943373014 15.217854418687933 1.683935036885254 0 0 0
84 1 13.685057111810519 13.882909065665503 0.17310980095828654 0 0 0
90 1 16.38318624380356 13.802912373061025 2.8393166756027712 0 0 0
96 1 20.224124606769212 14.91660409033058 1.540521881615945 0 0 0
101 1 1.3189811233979425 17.62382873889211 1.3959595776575704 0 0 0
99 1 2.7207194883119303 16.194809750425843 2.6583356789379997 0 0 0
97 1 21.76701496335719 16.40176944502383 0.14313357153851491 -1 0 0
105 1 5.297768285006282 16.143854517785318 21.75240911406329 0 0 -1
109 1 6.798677212008767 17.488831776335548 1.400828609007982 0 0 0
107 1 8.211117670554133 16.369596047588608 2.9053258839061944 0 0 0
117 1 12.237310932298088 17.859719151675012 1.2449203674227252 0 0 0
115 1 13.479388011915349 16.42456187848601 2.8980775099166056 0 0 0
125 1 17.7862529073169 17.752178023150208 1.283146385778749 0 0 0
121 1 16.360255068631908 16.35532433505991 0.19962607233860652 0 0 0
123 1 19.11332418864377 16.421642700509384 2.737490428423706 0 0 0
98 1 21.675207485215417 19.047815569808215 2.8013712787239182 -1 0 0
106 1 5.624850217987714 18.78565551651383 2.8055353666123577 0 0 0
104 1 4.180871723526636 20.102022493206476 1.4612393862926607 0 0 0
112 1 9.626836463010598 20.40897924335106 1.2468022932481284 0 0 0
114 1 10.904170917111896 19.09632706204192 2.66384696908877 0 0 0
120 1 14.917226010974813 20.31213620019305 1.4653025262071466 0 0 0
116 1 13.659149003278303 19.097805412293894 21.74392420807942 0 0 -1
25 1 16.29837378637756 21.693012076687815 0.09181033186007781 0 -1 0
122 1 16.543457639050104 19.081353288999946 2.679143181253485 0 0 0
27 1 19.107843371433457 21.749585603031477 2.738657421673245 0 -1 0
1 1 0.30090240343761465 0.013145352633550544 0.10259114921300849 0 0 0
128 1 20.381196567783824 20.465645123856966 1.3625741630164658 0 0 0
124 1 19.03580338044801 19.11398388984494 21.571214241959947 0 0 -1
132 1 2.787019297918887 2.6637597989586674 5.351696113377323 0 0 0
7 1 4.380306082902742 1.22215137420833 4.22899573749922 0 0 0
137 1 5.836159652175645 21.783840819280222 5.508839691074049 0 -1 0
140 1 8.34105819581574 2.8445906438757205 5.41441817181379 0 0 0
15 1 9.510876372441611 1.5127742223877463 3.990596952401023 0 0 0
145 1 10.802825654923064 0.12946726921529006 5.239076932199703 0 0 0
23 1 14.875011149663747 1.5022524562306074 4.053542364300999 0 0 0
148 1 13.49844408585629 2.7937645799870383 5.429510465667693 0 0 0
153 1 16.261673077562406 0.08044307256668738 5.287541401742494 0 0 0
31 1 20.480954826389745 1.212257067015372 4.049126883308727 0 0 0
156 1 19.32670405855264 2.513535564171992 5.574874999088161 0 0 0
129 1 21.595734657504543 21.517579188430435 5.40472779514192 -1 -1 0
6 1 1.5709888979818871 3.810422978277123 3.9445744810841945 0 0 0
161 1 0.4296435846308506 5.321980561698633 5.240876744344611 0 0 0
169 1 5.464213411350696 5.546269823784198 5.355945601365172 0 0 0
14 1 7.007099134970046 4.1560293768802 4.0916744972480075 0 0 0
177 1 10.952153334344015 5.317866680375474 5.510452960934778 0 0 0
22 1 12.324720672662943 4.082520071601088 4.083586463118334 0 0 0
30 1 17.870225580610253 4.0299084929082 4.216395677437195 0 0 0
185 1 16.475677089182753 5.587947450524887 5.2019445119937995 0 0 0
164 1 2.573025027250671 8.352620501952941 5.278727946732557 0 0 0
39 1 3.9792914446526138 6.689111526868339 3.8517659232624895 0 0 0
172 1 8.386280262056644 8.289273341495596 5.465092831917858 0 0 0
47 1 9.720202855419553 6.792977406994475 4.127717558359814 0 0 0
55 1 15.090009292370015 6.985622854819984 3.876306362691909 0 0 0
180 1 13.464609831562106 8.098670109490845 5.07454143388666 0 0 0
188 1 19.069166411191123 8.392314424570337 5.395604921930894 0 0 0
63 1 20.56764285225668 6.69699237684976 4.18607769625919 0 0 0
38 1 1.1937655984407052 9.66475513794574 3.9149923576032037 0 0 0
201 1 5.083243131388922 11.00721266333744 5.407257390229027 0 0 0
71 1 3.782080279738819 12.302834407154894 4.0778880329094145 0 0 0
46 1 6.848712069415666 9.69553356007916 4.164629816926088 0 0 0
79 1 9.439145520294804 12.372963563848986 3.9755167735543075 0 0 0
54 2 12.166516220987138 9.571075020648982 3.972026888027333 0 0 0
209 1 11.16368147860585 11.14409050773481 5.292683564264309 0 0 0
87 1 15.072045313257016 12.347254380885163 4.200662927044032 0 0 0
62 1 17.81789284275069 9.750591262681276 3.840019235400732 0 0 0
217 1 16.449615415018926 10.83052562130787 5.282004531124973 0 0 0
193 1 21.78342810068025 11.201857964896714 5.232539652107074 -1 0 0
95 1 20.414326926935825 12.84047343960247 4.103815733979013 0 0 0
70 1 1.4574363591926511 15.10195173465357 4.152559965073592 0 0 0
196 1 2.5080713153686514 13.560495122552798 5.526213696358796 0 0 0
78 1 6.911000244344537 14.833015149392299 4.231705235284447 0 0 0
204 1 7.99807009060226 13.653278768157369 5.783820872777219 0 0 0
86 1 12.214020402167922 14.986276441819772 4.260611122645097 0 0 0
212 1 13.664508307584786 13.736612613117897 5.306103033440411 0 0 0
94 1 17.75307630035351 15.170935072953391 4.124837815888047 0 0 0
220 1 18.86455032523981 13.602368721520392 5.641189507160882 0 0 0
225 1 21.77088603467337 16.155882699877136 5.733102828943276 -1 0 0
103 1 4.133256489876398 17.379019178069832 3.974893109246132 0 0 0
233 1 5.395547854945907 16.17659343094953 5.546342342480382 0 0 0
111 1 9.602698326486184 17.63373364475017 4.218463930922774 0 0 0
241 1 10.95319491149094 16.45567213933439 5.623598507916301 0 0 0
119 1 14.991072401916744 17.779832258832656 3.989506406759961 0 0 0
249 1 16.137918331796513 16.291205243564168 5.508767992627773 0 0 0
127 1 20.620565206983198 17.429353338933574 4.177255971582387 0 0 0
228 1 2.859759947377354 18.99859286907937 5.068232554011545 0 0 0
102 1 1.3057576604572594 20.4522557440849 3.9504437614784433 0 0 0
236 1 8.222676625712062 19.01984257248288 5.518090043558137 0 0 0
110 1 6.849955351033441 20.362786041365514 4.065196505615124 0 0 0
118 1 12.382578208444635 20.562689130943795 4.05238293811964 0 0 0
244 1 13.564717737307284 19.172045751481743 5.460300814447329 0 0 0
126 1 17.693587139122002 20.45485398414169 4.124062369152628 0 0 0
252 1 19.031260079550112 19.001371090575873 5.268480253793308 0 0 0
133 1 1.587280892444509 0.9914365967772879 6.616494666022212 0 0 0
130 1 0.2902563778142486 2.6010515654524102 8.152965494119545 0 0 0
138 1 5.4416312141346275 2.76736213897691 8.182386820492773 0 0 0
141 1 7.045539242715342 1.497590060593883 6.989097932584166 0 0 0
146 1 11.016454166843172 2.6847496468436596 8.108782780116176 0 0 0
149 1 12.168407947210003 1.2247875705857048 6.688011706954371 0 0 0
147 1 13.587124090790446 21.71410914451931 8.007371198423053 0 -1 0
157 1 17.582371828736168 1.3674973522772849 6.7507917828903565 0 0 0
154 1 16.212258257172124 2.6928479235269887 8.06475502271766 0 0 0
155 1 19.067479167507546 0.16170014816116138 8.086082083144202 0 0 0
163 1 2.951713823007922 5.5074848715409095 8.052118061851594 0 0 0
136 1 4.191057027292366 4.064570397129302 6.515921877736714 0 0 0
171 1 7.970707736686042 5.348931267967912 8.078972737252455 0 0 0
144 1 9.604356053370681 3.99004536518335 6.949921949715627 0 0 0
152 1 15.005894377236096 4.243594048206566 6.5804660601410205 0 0 0
179 1 13.777148205072832 5.401413669660131 8.336854073510183 0 0 0
187 2 19.245139674841646 5.128739132511898 8.055370874144167 0 0 0
160 1 21.02724195377704 4.049918107802118 6.755853742240521 0 0 0
165 1 1.5392984271253998 6.932591680607601 6.6807153020648276 0 0 0
162 1 0.09501602550201808 8.307438812744472 7.908114754010151 0 0 0
170 1 5.31411337753633 8.183453288405698 7.912808499837865 0 0 0
173 1 6.832214459658873 6.9951116243590885 6.644956179859719 0 0 0
178 1 10.83015975897502 7.997923071283769 8.058218918419664 0 0 0
181 1 12.370653339604416 6.755142085331988 6.758225485752723 0 0 0
175 1 9.499882160402615 6.710967134563993 9.614445604475947 0 0 0
186 1 16.312288327702326 8.00628266415257 7.824793613205074 0 0 0
189 1 17.897331457226862 6.77452498718827 6.740155766685354 0 0 0
195 1 2.946946412458065 10.920170769684276 8.289093330625528 0 0 0
197 1 1.3731345208876171 12.15045793662545 6.886630614877198 0 0 0
168 1 4.004069652952055 9.510056808185777 6.799418361966065 0 0 0
203 1 8.122714676322893 10.89714487697934 8.166036515335456 0 0 0
205 1 6.438447155840398 12.281310647818398 6.805257033140534 0 0 0
176 1 9.706744864858594 9.688409934328009 6.571347267660041 0 0 0
213 1 12.381908683896574 12.244296005943268 6.704302629546909 0 0 0
184 1 14.844473814147689 9.42707371086996 6.551404684061183 0 0 0
211 1 13.52411894395467 10.655511447294458 8.156050095110308 0 0 0
221 1 17.644252517233024 12.074904864575702 6.896354407758173 0 0 0
192 1 20.52040216364315 9.687731241474872 6.707399274812143 0 0 0
219 1 19.11945904351718 10.822223191852546 8.085829638411221 0 0 0
194 1 21.63082482703823 13.419960149039154 8.183553430935937 -1 0 0
200 1 3.8292748149446925 15.064858545680048 6.785002100984845 0 0 0
202 1 5.277791705222841 13.796022672005876 8.24094569865861 0 0 0
208 1 9.40118893917626 14.936555119285218 7.005277927631883 0 0 0
210 1 10.96108726121737 13.627815155010515 8.200696963066475 0 0 0
216 2 14.747543539817197 15.07413184439232 7.005149453272899 0 0 0
218 1 16.122120351708755 13.35498528235353 8.145665427796539 0 0 0
224 1 20.384828228233328 14.902040150149986 6.888638270688622 0 0 0
229 1 1.2801289130733253 17.99466956114785 6.680233701402532 0 0 0
227 1 2.498105113646557 16.45263410275455 8.387412103108952 0 0 0
237 1 6.725272069712356 17.69243555584299 6.962101138925313 0 0 0
235 1 8.26478068895201 16.46823850376326 8.17050955834276 0 0 0
245 1 12.452673421580387 17.8770712202098 7.036246888026171 0 0 0
243 1 13.452357053692594 16.582468255176295 8.58154423511864 0 0 0
253 1 17.726597183514652 17.51032338157464 6.776925379259636 0 0 0
251 1 18.96975196921852 16.318362599200025 8.238259499266867 0 0 0
131 1 2.9350843495610226 21.54982710123587 8.175049841501346 0 -1 0
226 1 21.650641086227218 19.118132160066086 8.230606680387849 -1 0 0
234 1 5.442306044326743 18.615337463410434 8.4585898279737 0 0 0
232 1 4.326232269478249 20.267306922056168 6.694000662171295 0 0 0
139 1 8.156029637365553 21.51195657467462 8.21062125920644 0 -1 0
240 1 9.563649036601385 20.347898113644156 6.739904283252821 0 0 0
242 1 11.027255115124992 19.178723009468868 8.240698516371463 0 0 0
248 1 14.873540404478309 20.56869061895577 6.763972732507468 0 0 0
250 1 16.020502785707087 19.002216688974027 8.043181475538363 0 0 0
256 1 20.33316674887837 20.28382048161317 6.782255173246612 0 0 0
260 1 2.817408524708832 2.5937643840276885 11.079094056425014 0 0 0
261 1 1.4648938242575036 1.407556784700305 12.645295797061353 0 0 0
257 1 0.07887611402593464 0.1267930363519234 11.165128726660548 0 0 0
135 1 4.080889561959211 1.322628210450047 9.595980926217855 0 0 0
265 1 5.286040056883192 0.04863505188176237 11.020107754644748 0 0 0
268 1 8.37707644844176 2.8013894633046332 10.810177968723986 0 0 0
269 1 6.788550386999028 1.5457065352040837 12.051388787242535 0 0 0
143 1 9.722409621130145 1.2669421911159187 9.463484424095535 0 0 0
277 1 12.219384854885202 1.5522551469682304 12.249593053354648 0 0 0
151 1 14.746176120108586 1.285973005947615 9.444755093237752 0 0 0
276 1 13.65915216717505 2.778694839567929 10.841911617412897 0 0 0
285 1 17.655186631103543 1.5885965751174047 12.27365100983481 0 0 0
281 1 16.379595281653952 0.09943252050173672 10.758039010869176 0 0 0
159 1 20.45848132539651 1.5705979674199948 9.51689031801868 0 0 0
284 1 19.088073570555217 2.9194158776750117 10.880305766781628 0 0 0
134 1 1.47908197986017 4.112570910931245 9.47466080754478 0 0 0
297 1 5.4107596735436125 5.330392232508963 10.903020283253271 0 0 0
264 1 4.128424237539953 4.1164571290467835 12.2391595134813 0 0 0
142 1 6.736167571856337 3.969492847285264 9.565684624543739 0 0 0
305 1 10.972685935386048 5.362908549351016 10.978409456841689 0 0 0
150 1 12.3011111278705 4.031761401164633 9.475073233639504 0 0 0
272 1 9.470618727463028 4.207799174997882 12.40507978158275 0 0 0
280 1 14.968886323415997 4.243306593553463 12.14591510396895 0 0 0
158 1 17.782778253371553 4.00745851654439 9.528604975444326 0 0 0
313 1 16.287325469779 5.549655446843011 10.634883434162898 0 0 0
289 1 0.14492598194532746 5.2598702396230985 10.711321516627436 0 0 0
288 1 20.410982844636766 4.045419017629312 12.358836222422703 0 0 0
292 1 2.5536304894423547 8.093151595998696 10.915290163586 0 0 0
293 1 1.2947999861290411 6.742636379658452 12.148054515274621 0 0 0
167 1 4.188827522595097 6.828876464093161 9.47598960461729 0 0 0
300 1 7.942503289086406 8.002773738809124 10.85337811916376 0 0 0
301 1 6.779737413015424 6.746709556267038 12.254425118414613 0 0 0
183 1 15.096535547448736 7.094863792538943 9.503217734639456 0 0 0
308 1 13.788896907985194 8.210491341953862 10.983418733468374 0 0 0
317 1 17.826553774908803 6.760016895602259 12.024751168380506 0 0 0
190 1 17.699994784135114 9.187353213456978 9.226908153811342 0 0 0
191 1 20.58208822213027 6.693743679685112 9.240564298967993 0 0 0
316 1 19.220117431608113 8.044233788686325 10.572290914608885 0 0 0
166 1 1.4771849239235109 9.62161455553129 9.43428993840432 0 0 0
329 1 5.397688584670094 10.74007140128782 10.941530462680479 0 0 0
296 1 3.9718504755437753 9.53552095276154 12.183194749340949 0 0 0
199 1 3.9740717832975414 12.317213825178474 9.822068372965918 0 0 0
174 1 6.7443399946987075 9.403109471680661 9.359475418794625 0 0 0
333 1 6.784651931193255 12.085870118150599 12.147076205465547 0 0 0
182 1 12.320620962843146 9.258344348129492 9.580984167019489 0 0 0
337 1 10.841162628596534 10.574457386511256 10.970644073249252 0 0 0
341 1 12.141990100136475 12.270098574298432 12.041416373865083 0 0 0
207 1 9.667049744497017 12.195278361778923 9.641826207258587 0 0 0
304 1 9.489781791020858 9.170723141076182 12.2624408211602 0 0 0
215 2 14.912246478447916 11.975623029574063 9.558659997107387 0 0 0
345 1 16.346318649262383 10.493620118754952 10.923697260744868 0 0 0
349 1 17.567371568535116 11.897530251089695 12.346218147860366 0 0 0
321 1 0.10292657371229197 10.864669118084878 11.025626987093105 0 0 0
320 1 20.361131402602116 9.514605059005303 12.1059593958142 0 0 0
325 1 1.316153259889767 12.1874910166042 12.367717213928847 0 0 0
198 2 1.1480559995622275 14.879302651071496 9.448453036758158 0 0 0
324 1 2.4776603781907616 13.615616585850635 10.941780030206326 0 0 0
328 1 3.9447654026665906 14.754562821295428 12.3343004080044 0 0 0
206 1 6.851635067561525 15.128771434645055 9.624076216183607 0 0 0
332 1 8.26658522261269 13.648160601186621 10.888972402936927 0 0 0
336 1 9.599140109949941 14.92063494914392 12.237476793924214 0 0 0
214 1 12.177497046960848 14.946589262971239 9.603987766751219 0 0 0
340 1 13.664689376843041 13.512193724938294 10.896630988485523 0 0 0
344 1 14.986076233684104 14.923985019471228 12.29852393660418 0 0 0
222 1 17.51358121606287 14.820453691393773 9.334580660739693 0 0 0
223 1 20.292989649910876 12.197697358400552 9.586979282462828 0 0 0
348 1 18.96212848207493 13.515351543393475 10.758963049582107 0 0 0
352 1 20.297549756440375 14.739634382765255 12.26415489015585 0 0 0
357 1 1.2251249691779185 17.56449616283279 12.355276899689986 0 0 0
231 1 4.0425862027639505 17.469624601034777 9.98196384679547 0 0 0
361 1 5.541053760371487 16.203209045282833 11.194631342552945 0 0 0
239 1 9.602781446596937 17.947760930775328 9.677595199285152 0 0 0
369 1 10.990459303485473 16.406894199205336 11.106048211562848 0 0 0
373 1 12.297972860697344 17.617164328340984 12.393630740999306 0 0 0
247 1 15.244615108268345 17.807352734042187 9.797743267095417 0 0 0
377 1 16.368273252356534 16.165411416640243 10.970203185365502 0 0 0
381 1 17.645804672498738 17.830431775875816 12.123171804879878 0 0 0
353 1 21.371262154806075 16.380580050940544 10.84898816565343 -1 0 0
255 1 20.186118806954045 17.789810209146218 9.550357879150225 0 0 0
356 1 2.4802567926826917 18.956362617633488 10.991293339762155 0 0 0
230 1 1.325337152434414 20.32746825814847 9.647524844930402 0 0 0
360 1 4.052172942251249 20.21206677043326 12.334061657958015 0 0 0
364 1 8.164855805852646 19.145574849720184 11.11667330295862 0 0 0
238 1 6.674119936342024 20.215228074410533 9.699038911898484 0 0 0
273 1 10.902301271144275 0.05781053863831143 11.14796349332307 0 0 0
246 1 12.368997194161071 20.58328755544453 9.613703611871786 0 0 0
368 1 9.416066772888753 20.583289300978276 12.345292547609112 0 0 0
372 1 13.60982231339147 19.157365415693008 11.165821596451492 0 0 0
376 1 15.030604468541599 20.519307762781352 12.294803633742509 0 0 0
254 1 17.43371301953364 20.486961348527206 9.369689758455158 0 0 0
380 1 18.984358796711177 19.302544324419895 11.029478276709487 0 0 0
384 1 20.419621759562585 20.621410927297944 12.419916847903401 0 0 0
258 1 21.773324594064984 2.8325418678426404 13.66807399473886 -1 0 0
259 1 2.8050923539907435 0.010884628950337006 13.811197145939511 0 0 0
263 1 3.9570165064853566 1.6109769262508205 15.073699508638008 0 0 0
266 1 5.500134845611511 2.7881689263431313 13.634095683635831 0 0 0
267 1 7.967154791689696 0.3199026193038386 13.630389133082137 0 0 0
271 1 9.457192081023976 1.4407819248596765 14.967048765272514 0 0 0
274 1 10.65020698840899 2.8033886780264194 13.52976378099365 0 0 0
279 1 14.78298757916214 1.378467012268595 14.917739886458417 0 0 0
282 1 16.24547089803549 2.764719358171739 13.741400493814334 0 0 0
287 1 20.431199315115645 1.7766161481450042 15.205831982488963 0 0 0
283 1 19.056621912729177 0.3826680463247871 13.808627959663783 0 0 0
262 1 1.3388862574702212 4.308937807424753 14.966423389921555 0 0 0
291 1 2.79765373796039 5.488522790403142 13.498886815890554 0 0 0
270 1 6.814773154193889 3.9228910437681077 15.078253670866003 0 0 0
299 1 7.933909970212795 5.414477079808428 13.701755129166088 0 0 0
278 1 11.894871323260329 4.236819509386071 15.0545255558092 0 0 0
307 1 13.617953541425612 5.410419223423228 13.687289054681175 0 0 0
286 1 17.64430009678579 4.094108419155547 15.028494013967546 0 0 0
315 1 19.054025007857785 5.622848485139397 13.712090804312218 0 0 0
295 1 4.197637107697743 6.702691867819362 14.929515637399907 0 0 0
298 1 5.349220733740393 8.116844998214473 13.639745289113854 0 0 0
309 1 12.436982374331802 6.693786143613512 12.27700497461052 0 0 0
303 1 9.225689000413047 6.8933188015564895 14.960308194530755 0 0 0
306 1 11.134489109701734 7.945520685149862 13.729405803304036 0 0 0
311 1 15.041638407525284 6.46830360318989 15.118295036403808 0 0 0
314 1 16.34694304345538 7.775819657045182 13.65537892688762 0 0 0
290 1 21.65286841973482 8.207851266421542 13.418755550859286 -1 0 0
319 1 20.492655492953624 6.8570385593859005 14.938934157738004 0 0 0
294 1 1.3777252331002467 9.511472903761932 15.029653786849565 0 0 0
323 1 2.6703971399701234 10.8784410806414 13.723093522965328 0 0 0
327 1 3.8266767340066328 12.2709770503961 14.963043005141632 0 0 0
302 1 6.5698406659399256 9.727396193504902 14.806745252655437 0 0 0
331 1 8.136844458803333 10.775222497169647 13.464978308416722 0 0 0
335 1 9.336642929947603 12.117933848184824 14.954809495233617 0 0 0
310 1 12.175242104771437 9.532705095758253 14.963942273409923 0 0 0
312 1 15.055427471063354 9.370186170816558 12.44724818562225 0 0 0
339 1 13.477993352470525 10.672616854344437 13.444486645211695 0 0 0
343 1 14.860179930119513 12.110231012752564 15.020865722152148 0 0 0
318 1 17.746037736083995 9.4031213861007 15.081010915213124 0 0 0
347 1 19.245147531105417 10.934462331163122 13.698225558637752 0 0 0
351 1 20.618677992969083 12.226532256614094 15.154437604340087 0 0 0
326 1 1.3383761446206344 14.85802032086368 14.975590381170285 0 0 0
330 1 5.431811658501247 13.362533860863467 13.56665920937855 0 0 0
334 1 6.7325603888520975 14.940131977343212 14.881550285216122 0 0 0
338 1 10.847650844657261 13.555488025467927 13.621867998792709 0 0 0
342 1 12.163159760643884 15.123192263266288 14.968470749068663 0 0 0
346 1 16.28130462164588 13.377509116776517 13.698000702174896 0 0 0
350 1 17.784134814738344 14.910669748926486 14.800965609354659 0 0 0
322 1 21.77298246461397 13.614974304816236 13.553289306757392 -1 0 0
355 1 2.7119221541568974 16.307272089968702 13.651736250559503 0 0 0
359 1 3.796314977384929 17.83981369323119 14.98544801526285 0 0 0
365 1 6.69647687043017 17.8514612123079 12.603848061991316 0 0 0
363 1 8.100585165284647 16.25721563886748 13.61667025803072 0 0 0
367 1 9.518022020975735 17.62323215207986 14.995043125399349 0 0 0
371 1 13.687481511362733 16.25310858853486 13.644336534882562 0 0 0
375 1 15.01660659423525 17.690083465199113 15.233936525552613 0 0 0
379 1 18.946174298284294 16.337469733211698 13.434446480240876 0 0 0
383 1 20.27110026648587 17.768322303442993 14.879907559251224 0 0 0
358 1 1.1942943615262427 20.436642211999203 15.097559322163411 0 0 0
354 1 21.671134775485925 19.12404095372259 13.660427206792662 -1 0 0
362 1 5.2352040196324054 19.247734596682363 13.978034029755001 0 0 0
366 1 6.520268847772657 20.698951230238762 15.098987769735954 0 0 0
370 1 10.767942425524513 19.01872395543011 13.585013105580812 0 0 0
275 1 13.59040446652391 0.0017122490825585146 13.543305238658277 0 0 0
374 1 12.209908209648916 20.375895377952833 14.842913333699864 0 0 0
378 1 16.44973492298799 19.212242336768565 13.500757569337832 0 0 0
382 1 17.749404989757956 20.642911272956372 14.952789165866852 0 0 0
389 1 1.1926216614469276 1.3634659485151805 17.747658013122976 0 0 0
388 1 2.607068964580231 2.879853716440573 16.656955246715842 0 0 0
385 1 21.564488103486816 0.12521105028718793 16.3440026600409 -1 0 0
393 1 5.374974226628657 0.10288714359469253 16.619002145112283 0 0 0
397 1 6.869052982867266 1.175903924384755 17.629326716344483 0 0 0
396 1 8.37428331488068 2.698137393602897 16.462253824268245 0 0 0
405 1 12.211375782668263 1.6116529247408429 17.49133901975869 0 0 0
404 1 13.48600972367397 3.0751043235126283 16.186573026582113 0 0 0
413 1 17.62951899262019 1.3661741884401604 17.709834935186166 0 0 0
412 1 18.971784124309792 2.9114054831084815 16.59083970836188 0 0 0
417 1 21.775866014446326 5.492130099801659 16.417832274034232 -1 0 0
392 1 4.25406325863221 3.98661295759151 17.984367526559964 0 0 0
425 1 5.4964035163920215 5.278815356106313 16.54647770531455 0 0 0
400 1 9.559918592218148 4.116224990209933 17.930200726779447 0 0 0
433 1 10.471299580884969 5.659973185708388 16.43934427825002 0 0 0
408 1 15.019813484216565 4.0228898927227075 17.81288181456708 0 0 0
441 1 16.395394796921902 5.287213233627928 16.51403880294353 0 0 0
416 1 20.272636102374445 4.249193993314016 17.93394207606654 0 0 0
421 1 1.4097264904061426 6.683937670345844 17.801011829822126 0 0 0
420 1 2.8005767349240416 7.91832090001525 16.347677902875464 0 0 0
424 1 4.26628024175285 9.447123424591192 17.605290377808615 0 0 0
428 1 7.8456342511154515 8.341613252285898 16.302109223879484 0 0 0
429 1 6.87999540554584 6.818877258162978 17.740426425666147 0 0 0
437 1 12.34003273822726 6.773480970098305 17.489639937817767 0 0 0
436 1 13.608064505754863 8.119558242284317 16.03387725035135 0 0 0
445 1 17.625319919594208 6.916112345998772 17.694237809766406 0 0 0
444 1 19.228299457496576 8.19859050368031 16.364452337626915 0 0 0
453 1 1.4405954405275305 12.160371509886534 17.867418116507924 0 0 0
449 1 0.12990447791250048 10.947742955974547 16.408826846819675 0 0 0
457 1 5.407219869782025 11.100958075078976 16.297603962346027 0 0 0
461 1 6.657053916202305 12.299714509345042 17.725954509529807 0 0 0
432 1 9.419538255417978 9.509716000759854 17.748075205087147 0 0 0
465 1 10.816195392197688 10.795862808406973 16.357729314053746 0 0 0
469 1 12.141655430087598 12.261380168753876 17.835432028360703 0 0 0
440 1 14.846586617754577 9.627983674662149 17.569553339873114 0 0 0
473 1 16.49931253812195 10.869253456915953 16.35231720899669 0 0 0
477 1 17.83776128689234 12.338681315492677 17.673015792796143 0 0 0
448 1 20.500177862835876 9.464320187014224 17.720304716509638 0 0 0
452 1 2.5576290727238082 13.587949708796806 16.455131016691936 0 0 0
456 1 4.027409520890913 14.963561619183169 17.545801691034605 0 0 0
460 1 8.08339306483175 13.62663890799191 16.324245611536334 0 0 0
464 1 9.50855754608888 15.041385021171372 17.739607904271633 0 0 0
468 1 13.599822773427482 13.639052309627633 16.43050763674488 0 0 0
472 1 14.955517232358263 15.100986921194423 17.734064180212048 0 0 0
476 1 19.116117681193074 13.691693953372143 16.374593214038132 0 0 0
480 1 20.369585602881937 15.034702498778762 17.864098346773346 0 0 0
485 1 1.3124017806776371 17.55249762006333 17.555225732939146 0 0 0
481 1 21.765548315377455 16.146153616545014 16.11994367716869 -1 0 0
489 1 5.1704382304026515 16.18701388556589 16.077048186382978 0 0 0
493 1 6.597600772811065 17.708210030320114 17.233688023749465 0 0 0
497 1 10.77967446461484 16.26929873456781 16.292173810243586 0 0 0
501 1 12.072791072186694 17.707703599931197 17.79541136367768 0 0 0
505 1 16.549065367877876 16.25156406290699 16.338271863486657 0 0 0
509 1 17.91527576960897 17.624040148649907 17.55428536210694 0 0 0
484 1 2.6260676529187275 19.147491191580016 16.51882033306391 0 0 0
488 1 4.063333436575029 20.361573376879324 17.808394791051963 0 0 0
492 1 8.179908264769251 19.065095734794653 16.151986053364844 0 0 0
401 1 11.067355358098908 0.15488418996712738 16.216509591752704 0 0 0
496 1 9.595065420643271 20.447880731822217 17.369356189404982 0 0 0
500 1 13.615204695381584 19.043691351338303 16.436467584699987 0 0 0
504 1 15.169930349752544 20.43150416467191 17.71552998366201 0 0 0
409 1 16.252982590662416 0.14623968655196862 16.310831367250092 0 0 0
508 1 19.27720025472764 19.168015433290076 16.323023641075448 0 0 0
512 1 20.44710009937274 20.56623602338553 17.76019854399107 0 0 0
387 1 2.64093622716607 0.04934320291329633 19.005929441538086 0 0 0
391 1 4.077277447882134 1.1291259848478803 20.605273109194012 0 0 0
394 1 5.404910615621679 2.4934625346020494 19.164381827391416 0 0 0
399 1 9.59871300240895 1.28043214959468 20.452169887219803 0 0 0
402 1 10.863388966844315 2.910711246094423 19.252660556395153 0 0 0
407 1 15.039611437521048 1.322279352365649 20.62732416222245 0 0 0