LAMMPS data file via write_data, version 29 Aug 2024, timestep = 10000000, units = metal

512 atoms
2 atom types

0 21.78415134 xlo xhi
0 21.78415134 ylo yhi
0 21.78415134 zlo zhi

Masses

1 28.0855
2 12.011

Atoms # atomic

1 1 21.58581946630613 21.694271968521118 21.76747953288059 -1 -1 -1
2 1 21.519871516930436 2.7428551960031164 2.9190749159180522 -1 0 0
3 1 2.478768619929124 0.030534497517045622 2.5687389423220206 0 0 0
4 1 2.9211486087895855 2.896015793575598 21.63853760620031 0 0 -1
5 1 1.1895493509277264 1.436077988369807 1.2618188645909274 0 0 0
9 1 5.2740421640249115 0.08157013231746921 21.703713203522963 0 0 -1
10 1 5.596538164850776 2.7051661968906036 2.661506293433471 0 0 0
11 1 7.81060806870015 0.046150938358861526 2.713465847769708 0 0 0
12 1 8.185244806786809 2.9345335334151232 21.67641665694684 0 0 -1
13 1 6.819113454042543 1.416553229238112 1.127050794991653 0 0 0
17 1 10.766507424255478 21.75188275092174 21.667029857416193 0 -1 -1
18 1 10.78135470717672 2.700623355108594 2.6775719647110017 0 0 0
21 1 12.235629113536813 1.237712514973345 1.3593072108160222 0 0 0
19 1 13.704162168421568 21.702657944699904 2.7902992185661555 0 -1 0
20 1 13.408552153193979 2.5889054244522547 21.609663033141516 0 0 -1
25 1 16.32513813282469 21.577234032442963 21.531816740396433 0 -1 -1
26 1 16.403026972026957 2.853170590451761 2.4989495841995475 0 0 0
29 1 17.57054789657422 1.1772189195881995 1.1867354293337464 0 0 0
27 1 19.067175617312177 21.643723194906514 2.825398340465091 0 -1 0
28 1 18.805831592854755 2.7421575299774665 21.718155451181303 0 0 -1
33 1 0.06353686385966623 5.324490551881236 21.717241461561027 0 0 -1
35 1 2.5945310210317745 5.331366419608285 2.5283318751890542 0 0 0
8 1 4.228158670606961 4.044455604302391 1.2367595393209807 0 0 0
41 1 5.453528538024288 5.732764729041139 0.12949686771803381 0 0 0
43 1 8.313052737310423 5.50222593262252 2.869929740038779 0 0 0
16 1 9.679188335876463 4.165744229872872 1.2484754883412172 0 0 0
49 1 11.011205775843846 5.59696039567057 0.3338002418749591 0 0 0
24 1 14.854594321090513 4.131343314098766 1.1281102746115295 0 0 0
51 1 13.72676818793011 5.511280093461581 2.656986072929553 0 0 0
57 1 16.010685559443544 5.531363484295057 21.682883785847142 0 0 -1
32 1 20.279712323254998 3.985182102952299 1.2375536034940762 0 0 0
59 1 18.83083749380063 5.535610910235597 2.477280501194599 0 0 0
34 1 21.752955093950106 8.173700812545858 2.7676118322959726 -1 0 0
36 1 2.5243908423273913 8.32198714891907 21.774119806738263 0 0 -1
37 1 1.272878321066638 6.855303153918761 1.4480664320027334 0 0 0
42 1 5.238785214037396 7.879610630166216 2.7439231621047138 0 0 0
44 1 8.05878038165739 8.269791831830037 0.15598991427961986 0 0 0
45 1 6.80908335546318 6.8066137302794845 1.5964460150002566 0 0 0
50 1 10.970105126532161 8.232706093364516 2.916378209409484 0 0 0
53 1 12.492761877958488 6.9906239572693805 1.3901224006972324 0 0 0
52 1 13.7353166263511 8.45041163710954 21.737491362276835 0 0 -1
58 1 16.39690299400207 8.221167796133082 2.805479650476138 0 0 0
61 1 17.37836428467281 6.866763538041326 1.2235542546902003 0 0 0
60 1 18.900041047399437 8.239817032554672 21.731406537685583 0 0 -1
65 1 21.64378592988302 10.847455560586411 21.761681739995897 -1 0 -1
67 1 2.7103886348487407 10.569667702878107 2.726016539575071 0 0 0
69 1 1.442802095561557 12.201656519221565 1.353931452678641 0 0 0
40 1 4.374979697917221 9.380072855581714 1.2685884020074214 0 0 0
73 1 5.592674488654527 10.757196123120453 21.64296218587222 0 0 -1
75 1 8.193886587308661 10.628723885634349 2.532889615343183 0 0 0
77 1 6.673192898051419 12.232537098480044 1.3206657995575137 0 0 0
48 1 9.781968751897276 9.342091008443175 1.3191237685348522 0 0 0
81 1 10.956129976750413 10.80892659317478 0.17766924490559285 0 0 0
85 1 12.386231392794288 12.042358524775612 1.5135409309028725 0 0 0
56 1 15.069032179212716 9.615335576007633 1.3328199613864327 0 0 0
83 1 13.597092495464338 10.760487980795402 2.860427273306777 0 0 0
89 1 16.549699020829763 10.829610546454475 21.773308914748686 0 0 -1
93 1 17.903403762489145 12.281682472374593 1.3644269942826621 0 0 0
64 1 20.288421049219593 9.521413110667694 1.595573766213664 0 0 0
91 1 19.031337883444014 11.001681108318744 2.9164871824347895 0 0 0
66 1 0.0011072264056745788 13.650675804114211 2.8850560843928412 0 0 0
68 1 2.8005902066690624 13.722319482256829 0.05743822193882291 0 0 0
72 1 4.185212372427194 15.072447058468205 1.1296438609125272 0 0 0
74 1 5.290059656441102 13.597399880153349 2.5243108175495714 0 0 0
76 1 8.014414889702241 13.688607872812165 21.715942415816414 0 0 -1
80 1 9.55873790652681 14.943374609233398 1.441541449005005 0 0 0
82 1 10.890843526981419 13.544708861829696 2.689599539080647 0 0 0
84 1 13.912576061753253 13.617845007074699 0.35670943427761603 0 0 0
88 1 15.125195389491177 15.122101319492502 1.5753451890994883 0 0 0
90 1 16.35734518175876 13.522168236524802 2.6206698938516833 0 0 0
92 1 19.22927740291115 13.782702642231937 0.07753824910256339 0 0 0
96 1 20.518982150221564 15.123571474343334 1.4781611023174077 0 0 0
97 1 0.0760363721770296 16.50224614113551 0.022607503772544585 0 0 0
99 1 2.769176583629866 16.452081083230013 2.7233414048545446 0 0 0
101 1 1.3153449142885234 17.901819733918725 1.6323889077598035 0 0 0
105 1 5.4393247060453875 16.51075395039259 21.704403475593377 0 0 -1
107 1 8.151265891108256 16.457847889331997 2.8054758405226234 0 0 0
109 1 6.879484681793221 17.97486089273086 1.3512537633108674 0 0 0
113 1 10.7876975492714 16.212826903544933 0.06338773830343888 0 0 0
117 1 12.026868467492921 17.824988316286465 1.2469520639107041 0 0 0
115 1 13.486580645222325 16.457519519063386 2.591766926199816 0 0 0
121 1 16.412023824781308 16.27398717329222 21.775298285507642 0 0 -1
125 1 17.63696699292825 17.49149889026742 1.4133405862532622 0 0 0
123 1 19.07580832870148 16.34398419362737 2.8265731666309883 0 0 0
98 1 0.11959318102129594 19.11812650077866 2.7516413414304264 0 0 0
100 1 2.5111814899900793 19.035361500019448 0.035507624991610594 0 0 0
104 1 3.9642029503315075 20.42980876975757 1.2581395943335085 0 0 0
106 1 5.244500173363473 19.01942346210241 2.560122266246362 0 0 0
108 1 8.251148410420326 19.384408289485037 0.11426475151858713 0 0 0
112 1 9.49548772358439 20.58728026563011 1.7167357849957088 0 0 0
114 1 10.830275253605173 18.992392443167994 3.0185270922028473 0 0 0
116 1 13.31753334238052 19.03895092765748 21.603227965352843 0 0 -1
120 1 14.795147465972203 20.29636189479927 1.2226003586087477 0 0 0
122 1 16.40957853501192 18.968803575528504 2.6601882115048037 0 0 0
124 1 19.024981171099313 18.903318871672326 21.68884992050462 0 0 -1
128 1 20.390514573352956 20.31208326300455 1.4312483001352345 0 0 0
129 1 21.777534422409374 21.782627503710188 5.59555737564662 -1 -1 0
132 1 2.8660638233828593 2.4780732715166556 5.2132524407740295 0 0 0
7 1 4.194589497071585 1.237647979990669 3.6439560188963176 0 0 0
137 1 5.158657937749097 21.753907657605886 5.335359846070598 0 -1 0
140 1 8.052599130663998 2.56186084111005 5.6270919359572025 0 0 0
15 1 9.378345637229865 1.3465658012615214 3.9718692398622975 0 0 0
145 1 10.778322002651919 0.0670986611403179 5.427956672948557 0 0 0
23 2 15.22307809193954 1.4094547652711376 4.128645714285195 0 0 0
148 1 13.778074760875125 2.795227067643972 5.35303744492172 0 0 0
153 1 16.461453892289104 21.63059507745424 5.448976403544037 0 -1 0
31 1 20.312839470209575 1.131806892644868 4.222916640996602 0 0 0
156 1 18.887291449598717 2.6951139160868456 5.30077280512227 0 0 0
6 1 1.3332236366346781 3.9516302647053374 3.9821590011301353 0 0 0
161 1 0.029116052059882033 5.326374885655228 5.379928641014483 0 0 0
169 1 5.4457709643968 5.42773665014279 5.425878917839843 0 0 0
14 1 6.833175140108244 3.9121348831467477 4.067316945192789 0 0 0
22 1 12.209565565054804 4.09049240413175 3.9406603101200246 0 0 0
177 1 11.06114999278536 5.336218271640417 5.7513801372133715 0 0 0
30 1 17.664742122508546 4.0659490002266745 3.905834897874196 0 0 0
185 1 16.39120095461746 5.399993952788306 5.292004050241243 0 0 0
164 1 2.6215067204037883 8.049001064249117 5.256789822879123 0 0 0
39 1 3.8417923917303347 6.567033522189521 4.051207634480391 0 0 0
172 1 8.314483614324354 7.9784983854316405 5.4073453598011465 0 0 0
47 1 9.803629100411397 6.68816144484247 4.246759155168632 0 0 0
55 1 14.97434274811889 6.9483156841105265 4.002743842714871 0 0 0
180 1 13.653984211988025 8.232525408996832 5.782851665544447 0 0 0
63 1 20.435779655884303 6.618442643064138 3.7671317667740767 0 0 0
188 1 19.0699136817949 8.097237179686877 5.429832273440636 0 0 0
38 1 1.179798157476277 9.514077773555616 4.151469175651305 0 0 0
193 1 21.696101132391366 10.856815849804132 5.516447338095387 -1 0 0
71 1 4.017492302225334 12.010891079252712 3.9588690913604903 0 0 0
201 1 5.617430739806912 10.793068637582412 5.378240216588251 0 0 0
46 1 6.80458229600425 9.312118184075711 3.917710506971992 0 0 0
54 1 12.222529148460485 9.496036359641655 4.197692835436066 0 0 0
79 1 9.555067064095036 11.99803096133178 3.8412040464404162 0 0 0
209 1 10.860070328180067 10.897338526164424 5.422286344742227 0 0 0
87 1 14.9867793178039 12.267398478006351 4.0017421783767055 0 0 0
62 1 17.554914478162875 9.654279819922609 4.16863912102312 0 0 0
217 1 16.247815607125435 11.070074828939928 5.504775969393899 0 0 0
95 1 20.530168001422698 12.345692228836903 4.327616414924861 0 0 0
70 1 1.3459730505532712 15.022972750338917 4.187461172658253 0 0 0
196 1 2.703153614574417 13.440382419648001 5.456786163105918 0 0 0
78 1 6.723644389777072 14.904962760164453 3.945349120527532 0 0 0
204 1 8.206771455056618 13.369018327900587 5.131272330319832 0 0 0
86 1 12.18335353025384 14.980509854554485 3.906456318271115 0 0 0
212 1 13.592606083714548 13.635341394300935 5.1809904423779924 0 0 0
94 1 17.687756691070994 14.85066754721487 4.0733283445452635 0 0 0
220 1 19.08462558692872 13.637818000827199 5.617808725559917 0 0 0
225 1 0.16347801908096765 16.379221639358747 5.487955251092392 0 0 0
103 1 4.041157531599295 17.73692830916001 4.074343103909521 0 0 0
233 1 5.393027369664164 16.210016777404057 5.248529626534315 0 0 0
111 1 9.47515102067595 17.71961427492495 4.290938801963264 0 0 0
241 1 10.80985350549556 16.325883898668263 5.486499521305559 0 0 0
119 1 14.85610291204501 17.741542775122298 4.1028387299284885 0 0 0
249 1 16.311746492464614 16.319888504056014 5.4691455478639215 0 0 0
127 1 20.394780919532497 17.725079866710246 4.225731920023901 0 0 0
102 1 1.3757351808110199 20.486887684172366 3.9963646814756606 0 0 0
228 1 2.6657280081559174 19.192844064432805 5.517957974155893 0 0 0
110 1 6.654445704493465 20.45417317680592 3.993228116476609 0 0 0
236 1 8.060004144236101 19.040769793402017 5.43049126673118 0 0 0
118 1 12.32373984859262 20.38750334268003 4.370071735828428 0 0 0
244 1 13.778511431610804 18.91011781425769 5.596029873032356 0 0 0
126 1 17.7685283015892 20.108761482931914 4.125148718227104 0 0 0
252 1 19.080367385335677 19.022309558007198 5.74611840067082 0 0 0
130 1 0.09737375199120532 2.7654451323924767 8.120383094394168 0 0 0
131 1 2.8244839550751726 21.767659039626583 8.239252163061355 0 -1 0
133 1 1.5221485533686354 1.3350422545983012 6.782584808198619 0 0 0
138 1 5.3384444113629 2.7712221468372644 8.405516553578648 0 0 0
139 1 7.90377029610411 21.667643370954853 8.156053537378936 0 -1 0
141 1 6.45448642490357 1.3616501603980529 6.891318722351227 0 0 0
146 1 10.903650016170731 2.7032405734142277 8.028175786071772 0 0 0
149 1 12.333741995513957 1.4171542496473095 6.679068756589512 0 0 0
147 1 13.80057201577001 0.12272266907681831 8.113040094180278 0 0 0
154 1 16.39398227695271 2.7346356495435833 8.16218977806006 0 0 0
157 1 17.575742016999232 1.4114095348685742 6.815271991761212 0 0 0
155 1 19.03831577646891 0.0695325634888696 8.266834495692175 0 0 0
163 1 2.7070570374764134 5.411696526956112 8.146973101655076 0 0 0
136 1 3.8994897074378354 4.063799463492717 6.9480793767333555 0 0 0
171 1 8.113560092369251 5.6265218570990925 8.38115537789835 0 0 0
144 1 9.320792290592033 4.196473581045704 6.930183163701637 0 0 0
152 1 15.173032434715408 4.157552998132689 6.792565418868751 0 0 0
179 1 13.779138390990434 5.482961460143274 8.275577941685041 0 0 0
160 1 20.378295188923236 3.9361684792381793 6.6148576615417705 0 0 0
187 1 19.13446108196517 5.457004222201965 8.15009048526837 0 0 0
162 1 21.5923424642393 8.009883743636623 8.168129057679147 -1 0 0
165 1 1.143664931956099 6.681331930097144 6.776747486823977 0 0 0
170 1 5.482365142096153 8.033255702081918 8.194449065946785 0 0 0
173 1 6.875037768522698 6.765301037037131 6.793494807819125 0 0 0
178 1 10.967226895776037 8.092080316869934 8.035474940366417 0 0 0
181 1 12.335302635375031 6.8117389062667035 6.9461777989508615 0 0 0
186 1 16.31447387702085 8.231686113841628 8.28446557154786 0 0 0
189 1 17.66290242324897 6.830599679896349 6.844495649447894 0 0 0
195 1 2.7688644396520927 10.668212768776083 8.22143924824554 0 0 0
197 1 1.392492894006952 12.184653192785824 7.02604510837274 0 0 0
168 1 4.194498202270101 9.33300106991136 6.6757317492870385 0 0 0
203 1 8.288386582988531 10.74754787490135 8.470039883202684 0 0 0
205 1 7.201668909133619 12.056351192935292 6.667085221065816 0 0 0
176 1 9.618728940518643 9.42149346348419 6.6947127700073885 0 0 0
213 1 12.301992515262878 12.354985362927014 6.744796040068013 0 0 0
184 1 14.949386683476973 9.499115858533392 7.005529949116469 0 0 0
211 1 13.303243188494392 11.041506188880074 8.296213551231308 0 0 0
221 1 17.634669452044538 12.35000152269797 6.984262190430022 0 0 0
192 1 20.348679960148917 9.511578719889524 6.7183162449651705 0 0 0
219 1 18.95805217560837 10.874110259320949 8.115652355491521 0 0 0
194 1 0.01780186637854521 13.751671268532487 8.243848556909686 0 0 0
200 1 4.05449676562394 14.998054517455696 6.728267396025948 0 0 0
202 1 5.478125143139289 13.373779194614611 7.917810633864813 0 0 0
208 1 9.489785017372167 14.59211201843561 6.578274871464738 0 0 0
210 1 10.9402798476607 13.531412623891919 8.320462566892092 0 0 0
216 1 14.830610241719416 15.061554287007457 6.723782139629042 0 0 0
218 1 16.235606506559296 13.773106335789095 8.11992315514028 0 0 0
224 1 20.49543670570332 15.120844487818102 6.847482750491178 0 0 0
227 1 2.7376815390345444 16.285141365530485 8.237582654171863 0 0 0
229 1 1.3874429502908385 17.80731595580045 6.86796878632018 0 0 0
235 1 8.074096373013397 16.13975656281842 7.91370432705519 0 0 0
237 1 6.643607007721658 17.518372592301066 6.769840408550475 0 0 0
245 1 12.085311316891335 17.77991558458752 6.76574965907016 0 0 0
243 1 13.665686797343929 16.50798042308019 7.943786945278305 0 0 0
253 1 17.608314631827177 17.64398899352648 6.9970058700094135 0 0 0
251 1 18.922311849620588 16.39277245006429 8.293331622931246 0 0 0
226 1 0.050763363731841635 19.07883905107753 8.290039354899625 0 0 0
232 1 3.9072193407491476 20.49306916387625 6.800728384074853 0 0 0
234 1 5.123847118605628 19.099026147517122 8.114398686617248 0 0 0
240 1 9.359587758119545 20.470302806234127 6.684901164635369 0 0 0
242 1 10.938025716783233 19.20915415642944 8.201587357006709 0 0 0
248 1 14.957237400293254 20.38294211743017 6.945414871845472 0 0 0
250 1 16.47087625940167 19.151187994674345 8.356617832666748 0 0 0
256 1 20.524925104477497 20.581313752594742 6.915544134438892 0 0 0
257 1 0.08558495452838971 0.19939608649122118 10.904564082968738 0 0 0
260 1 2.886597626354004 2.73771891627836 10.967708100367924 0 0 0
261 1 1.680099407358033 1.249265517012919 12.397635197242627 0 0 0
135 1 4.110832424365778 1.1213436924762576 9.767808477048304 0 0 0
265 1 5.787133426027189 21.661272355829905 10.965059405546484 0 -1 0
268 2 8.359189875695405 2.5796260640406556 10.856329078992395 0 0 0
269 1 6.923404595318298 1.3665116380688331 12.38415244036433 0 0 0
143 1 9.534741331562975 1.260098587657851 9.334438937257 0 0 0
273 1 10.836301987967188 0.10254751516178601 10.92612672233872 0 0 0
277 1 12.301275565187412 1.4563208128314489 12.24460884177446 0 0 0
151 1 15.088944940252704 1.4357061445204191 9.548113312969733 0 0 0
276 1 13.611472730077478 2.7292267883918804 10.651691510839177 0 0 0
281 1 16.528694396525285 0.11191435326043596 10.85330962967822 0 0 0
285 1 17.776129679559293 1.6571007687679273 12.08140377477531 0 0 0
159 1 20.533867772661637 1.4404574705205726 9.47508984826945 0 0 0
284 1 19.15357481737625 2.733236092018573 10.749726514160953 0 0 0
134 1 1.3963117059646657 4.221077431987392 9.716085025458161 0 0 0
289 1 0.06797255837643616 5.541008856039195 10.906206501578826 0 0 0
264 1 4.178561408165177 4.244761632608287 12.286061469048128 0 0 0
297 1 5.522809650003563 5.624362823640012 10.799834975875001 0 0 0
142 1 6.956401992115368 3.9985398081752828 9.712947684503833 0 0 0
150 1 12.183683257057513 4.136216271281263 9.328586606625592 0 0 0
272 1 9.576695504570623 4.048262897340131 12.101603434706872 0 0 0
305 1 10.91136407786546 5.342340340350882 10.86029723699438 0 0 0
280 1 14.786697487239252 4.174316875649535 12.340282783797749 0 0 0
158 1 17.63644454653408 4.0610388910613056 9.577444750982382 0 0 0
313 1 16.226546370324638 5.552190239551972 10.951976355588215 0 0 0
288 1 20.524187799066258 4.08423181615226 12.178889685398335 0 0 0
292 1 2.900937410253987 8.124828204215339 10.825074075867965 0 0 0
293 1 1.4749027594253348 6.823788389982582 12.36258459225776 0 0 0
167 1 4.093713481227027 6.921672823104036 9.427465867510007 0 0 0
300 1 8.029016383730646 8.031892955696192 11.028685260907924 0 0 0
301 1 6.792465989188458 6.717628587392311 12.405639819927872 0 0 0
175 1 9.67826119549872 6.964001693259245 9.546141808923846 0 0 0
309 1 12.126344895337118 6.881930126421282 12.416687423672863 0 0 0
183 1 15.012072698920017 6.879356385419968 9.560869248607927 0 0 0
308 1 13.576966996499177 8.314147649722802 10.97811970726664 0 0 0
317 1 17.4914933774521 6.919254813128761 12.431649291145915 0 0 0
191 1 20.457614351520956 6.810956283353724 9.636676334625717 0 0 0
316 1 18.902003453477732 8.213539688498384 10.980655092982762 0 0 0
166 1 1.4048320531969063 9.317203141636943 9.5097284066198 0 0 0
321 1 0.0983736779123119 10.64577838445054 10.74888221079583 0 0 0
325 1 1.1124665443227646 12.198515331657108 12.058073853367086 0 0 0
199 1 4.139198250028432 12.093486130055332 9.377307218688571 0 0 0
296 1 4.2018192654930955 9.620228646664208 12.178438166774674 0 0 0
329 1 5.495010832441319 10.8363405033754 10.696606319646756 0 0 0
174 1 6.89291117759756 9.357576120612915 9.661305714003472 0 0 0
333 1 6.774954195941583 12.351519762285744 12.069166412443595 0 0 0
182 1 12.145361786840382 9.484827558531004 9.422865752958673 0 0 0
207 1 9.586299576502245 12.23849236541024 9.627678796932843 0 0 0
304 1 9.431131852925901 9.599745683997956 12.322272511816786 0 0 0
337 1 10.764727780271919 10.915465374604457 10.831684311118481 0 0 0
341 1 11.987638199843586 12.274305576912576 12.176532846995855 0 0 0
215 1 14.937743137011887 12.231996082748246 9.43784840225643 0 0 0
312 1 14.8236394298269 9.786064649868319 12.315291899863677 0 0 0
190 1 17.49234738536155 9.547092307280076 9.564190362091013 0 0 0
345 1 16.154361668820247 10.89328630221372 10.816198374007971 0 0 0
349 1 17.61822862150271 12.17517909600495 12.212014698027623 0 0 0
223 1 20.582918386623227 12.05824677132666 9.54499287620977 0 0 0
320 1 20.356399906016904 9.425372088277244 12.180919678393396 0 0 0
198 1 1.4751881520457788 14.943658146766257 9.474007843099539 0 0 0
324 1 2.7530340334130106 13.340208835610335 10.78976522958058 0 0 0
328 1 4.085165038915408 14.809032739887254 12.020785423450347 0 0 0
206 1 6.851724576341045 14.995622744775186 9.438781986710849 0 0 0
332 1 8.111900402030875 13.735899492385839 10.747509060971158 0 0 0
214 1 12.399040249653963 14.959133386975516 9.434997072940439 0 0 0
336 1 9.641294338469677 14.892142976382136 12.154103891360375 0 0 0
340 1 13.651291608875809 13.52075313268331 10.847928355988895 0 0 0
344 1 14.885516575174506 14.855311918225626 12.304588471916706 0 0 0
222 1 17.73932372822106 14.788282204418042 9.581703105430268 0 0 0
348 1 19.174123190868404 13.308508451531418 10.784862652470864 0 0 0
352 1 20.31100119317408 14.914010094693445 12.219565213228595 0 0 0
353 1 0.23315466083358274 16.333988685753877 10.978046583640426 0 0 0
357 1 1.4970171364138152 17.699523017449636 12.157496681081836 0 0 0
231 1 3.9933132971665657 17.71579952508881 9.568093676940341 0 0 0
361 1 5.426317796995107 16.295704044680466 10.806468858681201 0 0 0
365 1 6.852994323786657 17.685384274207642 12.189386160440655 0 0 0
239 1 9.494008841746833 17.67639117469409 9.196557922385388 0 0 0
369 1 10.97629372870271 16.41355000111565 10.618020214108741 0 0 0
373 1 12.200566724058397 17.73265171772273 12.118998370756172 0 0 0
247 1 15.061544245378766 17.621619076606873 9.549851318882482 0 0 0
377 1 16.34232407019249 16.214374264337586 10.79941266744769 0 0 0
381 1 17.58543042816493 17.527121314776696 12.05362766663047 0 0 0
255 1 20.515625182116384 17.60861340875589 9.69161540571659 0 0 0
230 1 1.3537926127943976 20.544877053743907 9.591642525296622 0 0 0
356 1 2.686681657206892 19.128794451805796 10.853453991685646 0 0 0
360 1 4.32781167330997 20.304310893393147 12.168170792528231 0 0 0
238 1 6.772605261329805 20.324549111039726 9.472682410497333 0 0 0
364 1 8.215115435885284 19.007460919255813 10.6040821127901 0 0 0
246 1 12.180518830868914 20.51970095861723 9.684077829993004 0 0 0
368 1 9.358750954824561 20.40143114315251 12.069960453506337 0 0 0
372 1 13.781808180831623 19.027862286353482 10.825162846095706 0 0 0
376 1 15.123714068506576 20.4741924524804 12.084313370703114 0 0 0
254 1 17.91345956836523 20.39970476583128 9.66174018198677 0 0 0
380 1 19.122672763257977 18.9410685263088 10.877370989269076 0 0 0
384 1 20.48271053244296 20.257648771720397 12.269019926841676 0 0 0
258 1 0.287512325858048 2.800729201306016 13.497241578875146 0 0 0
259 1 2.8065009857846794 21.64086846387566 13.7554244116005 0 -1 0
263 1 4.104524964854709 1.200697242646155 15.14571634523848 0 0 0
266 1 5.414559061285315 2.6342470568689906 13.627420415551834 0 0 0
267 1 8.411008996787999 0.09712147747925072 13.746604937409291 0 0 0
271 1 9.678551693691148 1.4885611930281044 14.962950560070501 0 0 0
274 1 10.9523531234935 2.7604061256399013 13.559766812012603 0 0 0
275 1 13.75202018222365 0.07840007588475559 13.430180086023801 0 0 0
279 1 15.096026357517726 1.3392227280775895 15.037343732650404 0 0 0
282 1 16.34810682791879 2.846698563914753 13.58509717400483 0 0 0
283 1 19.1584607973718 0.038474485235893544 13.457645636899057 0 0 0
287 1 20.55049555009364 1.3949844061534291 14.928707031414573 0 0 0
262 1 1.5182452295699564 4.037535648638278 15.049966846456813 0 0 0
291 1 2.927300681489207 5.543174365063436 13.84425940077663 0 0 0
270 1 6.813136906627784 3.863099491264723 14.788809721903766 0 0 0
299 1 8.300563560711119 5.328359897485481 13.5391943388493 0 0 0
278 1 12.263878864743202 3.980017807114634 15.0193423561738 0 0 0
307 1 13.541531239421547 5.585580038298083 13.683804580098515 0 0 0
286 1 17.549266683983245 4.240448230523866 15.194398784733067 0 0 0
315 1 19.0345541400571 5.472212627873916 13.57479506819828 0 0 0
290 1 21.53558603996015 8.113045309630808 13.616919671769216 -1 0 0
295 1 4.276788628932209 7.029597869866879 14.983217377316587 0 0 0
298 1 5.506900078406574 8.369236243277903 13.578550318165103 0 0 0
303 1 9.198245172621924 6.794250175959689 15.05032673747786 0 0 0
306 1 10.633527933320051 8.15365971308764 13.759150717749744 0 0 0
311 1 14.934177911521536 6.823255592321357 14.985951084103833 0 0 0
314 1 16.229157199357484 8.450106756932446 13.738712365285748 0 0 0
319 1 20.30574936749774 6.631979726733281 15.127770968476101 0 0 0
294 1 1.32297688715803 9.564036199888804 14.922819785607528 0 0 0
323 1 2.8251719771490205 11.114733271013845 13.540871977139988 0 0 0
327 2 4.044438694215902 12.436358668975853 14.9307489295615 0 0 0
302 1 6.788630336082899 9.728506733102156 14.882795472474076 0 0 0
331 1 8.106647900768964 11.015560420122123 13.586841300310585 0 0 0
310 1 12.065032049096228 9.64671877858533 15.098741650592546 0 0 0
335 1 9.431203197925015 12.199949359157984 15.063759196053166 0 0 0
339 1 13.38105250985617 11.081473760939115 13.573193659913425 0 0 0
343 1 14.543432226299498 12.403082118166063 15.086284578258855 0 0 0
318 1 17.698765360671015 9.644637573189042 15.09540336343149 0 0 0
347 1 19.10592871965488 10.837650210683805 13.521281016901172 0 0 0
351 1 20.306921111657275 12.440815047651858 14.96295509465165 0 0 0
322 1 21.770706366880752 13.740589134231554 13.442166174405687 -1 0 0
326 1 1.3144122836998244 15.041968263028982 14.926160504795206 0 0 0
330 1 5.34811535966978 13.663238225405616 13.529086992040511 0 0 0
334 1 6.893505918891233 14.9072143454148 14.943281013658448 0 0 0
338 1 10.860945304752363 13.583263011852885 13.831838872654302 0 0 0
342 1 12.175517363509012 14.915531661741861 15.136777047466031 0 0 0
346 1 16.23727886099124 13.644960598318411 13.626651770080583 0 0 0
350 1 17.50798445146255 15.032522715596084 14.860272750593142 0 0 0
355 1 2.8920842639295286 16.241347997698636 13.554568426783879 0 0 0
359 1 4.313950230210157 17.59593968932835 15.151174596187936 0 0 0
363 1 8.282210615798693 16.147451966437615 13.54534941412824 0 0 0
367 1 9.652655439030074 17.640991588241263 14.910786768230242 0 0 0
371 1 13.428184783437612 16.168452547687078 13.545036540969331 0 0 0
375 1 14.941324674182948 17.493780614653677 14.67992046271001 0 0 0
379 1 19.016961739020303 16.30156485634816 13.463925289729763 0 0 0
383 1 20.43907599142453 17.81057936070003 14.604662730332295 0 0 0
354 1 0.2220418709616869 19.00082277922618 13.584215295974346 0 0 0
358 1 1.2506587150435273 20.373489001782698 15.07285483211661 0 0 0
362 1 5.726329993255332 18.99264246067693 13.764676285130532 0 0 0
366 1 7.1388781264680015 20.545907279344668 15.103907414588594 0 0 0
370 1 10.969817831391294 19.182449599260327 13.472692233712019 0 0 0
374 1 12.54796019853991 20.581919221450956 14.839678168258086 0 0 0
378 1 16.336349694427533 19.00583660332881 13.37609045862613 0 0 0
382 1 17.709174741638275 20.608248220854758 14.767250951606089 0 0 0
385 1 21.769628289907047 0.1550374761002455 16.35144646691082 -1 0 0
388 1 2.973105528026469 2.9702740543475503 16.470988808876424 0 0 0
389 1 1.482697202535754 1.585619412454432 17.617426974459594 0 0 0
393 1 5.553063487297894 0.06543221660323005 16.548605667995627 0 0 0
396 1 8.29673509073379 2.6371368834820204 16.194569372751037 0 0 0
397 1 7.02702073486031 1.5109614792409045 17.813765149316378 0 0 0
401 1 10.986391092597769 0.06483824927290889 16.263510105787265 0 0 0
405 1 12.216268514341285 1.3736389161851237 17.690078463712197 0 0 0
404 1 13.75703382949607 2.747210902370187 16.388833925897217 0 0 0
409 1 16.576347996178 0.07541199810005259 16.45298051791045 0 0 0
413 2 17.734832646680076 1.5838702229870478 17.888244076522447 0 0 0
412 1 19.04208005960154 2.7093396309899043 16.293027178398905 0 0 0
417 1 0.04266639243016921 5.305358958403802 16.430842840152067 0 0 0
392 1 4.2530469670373945 4.358328200738075 17.547379254222086 0 0 0
425 1 5.726317841066465 5.288732682192643 16.097371459868913 0 0 0
400 1 9.635401762751949 4.156160059495123 17.782256045442118 0 0 0
433 1 10.780956285391287 5.399550284281392 16.250851041063417 0 0 0
408 1 14.936177653417792 4.187988801506558 17.744653836380746 0 0 0
441 1 16.251677228013737 5.624146743529149 16.458689697778357 0 0 0
416 1 20.47685194738803 4.014197161245634 17.684096423289287 0 0 0
420 1 2.6910538371887425 8.345049590725294 16.44708338494833 0 0 0
421 1 1.3062498442787487 6.997828991463517 17.884285060584073 0 0 0
428 1 8.080134040362116 8.361847487016602 16.531492437436032 0 0 0
429 1 6.885902912267845 6.795757170787515 17.755284120263294 0 0 0
437 1 12.271297888330736 6.792531221322862 17.655044697674963 0 0 0
436 1 13.582124429633147 8.247384952593238 16.40347872492636 0 0 0
445 1 17.847514056536767 6.63672333231524 17.699699088089965 0 0 0
444 1 18.972759633349327 8.111683772437956 16.39396732997103 0 0 0
449 1 21.736052831328 10.882817706514055 16.40244684043564 -1 0 0
453 1 1.4038461743607955 12.127898171530555 17.74949067240927 0 0 0
424 1 4.14339986249156 9.4530919878899 17.83428728691752 0 0 0
457 1 5.322150796209365 10.862676973834365 16.393886054474137 0 0 0
461 1 6.80024658883494 12.257573835283006 17.74029797884712 0 0 0
432 1 9.511716874592802 9.608213993352859 17.76920896259582 0 0 0
465 1 10.950164151065046 11.042630851974268 16.396600993365002 0 0 0
469 1 12.076664382503909 12.285196383113849 18.04805214088413 0 0 0
440 1 14.984575394356419 9.66168309034585 17.730921732761484 0 0 0
473 1 16.238228856988435 11.022773193298057 16.310807648565586 0 0 0
477 1 17.651649134921907 12.322366111725222 17.672664548545725 0 0 0
448 1 20.37975960716496 9.539502279419901 18.04183752403855 0 0 0
452 1 2.692268833197634 13.660679271169762 16.327314208568936 0 0 0
456 1 4.208980668873786 14.711731858405106 17.760624416129158 0 0 0
460 1 8.113022922513515 13.497579468345306 16.293563140320586 0 0 0
464 1 9.528897879562637 14.810996314404006 17.5856042187682 0 0 0
468 1 13.470012574365178 13.674961170969814 16.803585968899963 0 0 0
472 1 15.022575726469828 15.111609024705107 17.906339774045396 0 0 0
476 1 18.918253943016772 13.868725198792589 16.293131159634683 0 0 0
480 1 20.446197832589824 15.021838769665644 17.517046577432684 0 0 0
481 1 0.1527376287613379 16.671436578638538 16.315112738003588 0 0 0
485 1 1.6657708238804028 17.770632540562797 17.853632995611832 0 0 0
489 1 5.670459992891671 16.107648484317743 16.52065547361347 0 0 0
493 1 6.897272867862725 17.754137140725778 17.79837123729045 0 0 0
497 1 11.05329401051564 16.288491110349046 16.51352834710936 0 0 0
501 1 12.270530305268373 17.91683998833568 17.763669747874392 0 0 0
505 1 16.23087654198259 16.248590692829183 16.296641204775906 0 0 0
509 1 17.545356480170913 17.483138151144722 17.58206832168255 0 0 0
484 1 2.799963238761506 19.012211523095594 16.333574289536784 0 0 0
488 1 4.146900243177019 20.328283033397785 17.644880908974436 0 0 0