LAMMPS data file via write_data, version 29 Aug 2024, timestep = 10000000, units = metal

512 atoms
2 atom types

0 21.75660358 xlo xhi
0 21.75660358 ylo yhi
0 21.75660358 zlo zhi

Masses

1 28.0855
2 12.011

Atoms # atomic

1 1 21.696846491417574 0.031142734008534935 0.06854443303396696 -1 0 0
2 1 0.08601457066037103 2.7418796377080183 2.536401829201146 0 0 0
3 1 2.801906040099722 21.726762089364527 2.7691047746780284 0 -1 0
4 1 2.7863856743860023 2.6947207286092185 21.491156403879604 0 0 -1
5 1 1.5746847407771383 1.2845677054836044 1.243806697184496 0 0 0
9 1 5.593177819570079 21.613507544684243 21.703914976086818 0 -1 -1
10 1 5.609530069944649 2.7508788970013773 2.666440947085519 0 0 0
11 1 8.28099903668873 21.7303916853328 2.8163040800691634 0 -1 0
12 1 8.116386567097138 2.595429580880745 21.728154569181108 0 0 -1
13 1 6.852469217171256 1.2282943709793788 1.5979846111583027 0 0 0
17 1 11.018221191352202 21.70552777660226 0.004427635042998067 0 -1 0
18 1 10.831655423978797 2.6850558935074584 2.563926608067842 0 0 0
21 1 12.253554751805146 1.4020693735816465 1.2196207613651324 0 0 0
19 1 13.625914178709252 0.14601399806755658 2.7712146629857353 0 0 0
20 1 13.814105684461321 2.916341343706108 21.725607548371265 0 0 -1
25 1 16.259068568109004 0.10075935830997661 21.71373152766227 0 0 -1
26 1 16.370495904862672 2.8337380031837363 2.7054607549487555 0 0 0
29 1 17.68051212074578 1.4186275304638973 1.3490443060782342 0 0 0
27 1 19.008412634175052 21.75487694538291 2.8110072315380084 0 -1 0
28 1 19.11805065743504 2.855862550103135 21.661968031291902 0 0 -1
33 1 21.60195315600317 5.462354833967573 21.688531287494822 -1 0 -1
35 1 2.400058818950608 5.385458011285645 2.499936674925679 0 0 0
8 1 3.966370521427612 3.9505499018153265 1.203213936363045 0 0 0
41 1 5.252301698933239 5.480295653384299 21.71742313908167 0 0 -1
43 1 8.023001255961182 5.451766890122434 2.7014303433887186 0 0 0
16 1 9.428637649587545 4.069147161207459 1.3051983026876963 0 0 0
49 1 10.87703681096655 5.427944936592563 21.685251242529993 0 0 -1
24 1 14.830706858380402 4.303111494069542 1.5681631250116115 0 0 0
51 1 13.397606917153468 5.473466507668647 2.881395585226485 0 0 0
57 1 16.305480549432996 5.53218568251492 0.0844630986129531 0 0 0
32 1 20.47494749365281 4.171706181234688 1.3890008561333311 0 0 0
59 1 19.07683105553462 5.63039772181614 2.6718624048585684 0 0 0
34 1 0.06961817579606028 8.22122797298796 2.651794907068603 0 0 0
36 1 2.721743497731728 7.950806554740252 0.012359699392043772 0 0 0
37 1 1.244268644152071 6.903471139026335 1.1948341808555614 0 0 0
42 1 5.361355463567753 8.235694388824996 2.7423524373851196 0 0 0
44 1 8.098981219227282 8.118146766847369 21.724355822209226 0 0 -1
45 1 6.720268096911241 6.794016556283139 1.2157962428755549 0 0 0
50 1 10.78572343206358 8.27538466828996 2.62103553920345 0 0 0
53 1 12.261280973799831 6.857276670046563 1.3509625575824928 0 0 0
52 1 13.507983985150545 8.084821558576268 21.555894895516627 0 0 -1
58 1 16.052364450523925 8.173610304311406 2.6319586683220115 0 0 0
61 1 17.613922177343838 6.935189259820525 1.4248390954013992 0 0 0
60 1 19.101028068909905 8.092958206075888 21.62337260266245 0 0 -1
65 1 21.638790655112484 10.966600807283713 21.68836815451704 -1 0 -1
67 1 2.512904016095464 10.992824694740575 2.7984477280199918 0 0 0
69 1 1.194695139431811 12.241764430378156 1.3606934787625213 0 0 0
40 1 3.7222465091025034 9.580815722123312 1.4679137245011358 0 0 0
73 1 5.197449022297329 10.76814038642585 0.08443680458559641 0 0 0
75 2 8.032276925761538 10.8108212047275 2.770044036490068 0 0 0
77 1 6.761961983893014 12.043284374604035 1.2200918391157993 0 0 0
48 1 9.360790706492097 9.485911111628635 1.2336865648590263 0 0 0
81 1 10.81860352041529 10.84849681327063 0.06527202259289014 0 0 0
85 1 12.124247236111366 12.141731301871834 1.4466684876609037 0 0 0
56 1 14.765874393233027 9.41472535160316 1.189621164213865 0 0 0
83 1 13.616449325676992 10.782732959641644 2.6961809100927043 0 0 0
89 1 16.102415503759868 10.770246914620916 21.73798666502418 0 0 -1
93 1 17.67786769836425 12.08973061225415 1.2419329930580834 0 0 0
64 1 20.38595286038906 9.468225064029184 1.3247046346284292 0 0 0
91 1 18.924953416908195 10.782458002782972 2.645444743655168 0 0 0
66 1 21.58021620604044 13.53938693632583 2.8488902389483184 -1 0 0
68 1 2.622030354973858 13.700104034439368 21.74179485679008 0 0 -1
72 1 4.067113586566428 15.07682445759258 1.370744041609824 0 0 0
74 1 5.421315737730328 13.704530619636161 2.61540551906268 0 0 0
76 1 8.176977397341934 13.6349032546849 21.743968548059673 0 0 -1
80 1 9.422723077511755 15.08398289586383 1.2617035113200237 0 0 0
82 1 10.806116917073211 13.464050685598117 2.7371335458681085 0 0 0
84 1 13.433728802098754 13.552345242377193 21.547580517444143 0 0 -1
88 1 14.81825165693255 14.750759420339145 1.3887074315457686 0 0 0
90 1 16.270007546565108 13.454482052246671 2.6085164995669308 0 0 0
92 1 18.970363955265732 13.579792656297503 21.747554127761898 0 0 -1
96 1 20.52027451875199 14.941201052331287 1.3462260687485517 0 0 0
97 1 21.75158473138895 16.360379491669377 0.14330517123595826 -1 0 0
99 1 2.6548240260546887 16.339159907404483 2.7455769250604853 0 0 0
101 1 1.4172282078184393 17.773752358916823 1.4047332359030065 0 0 0
105 1 5.578585924651428 16.247978117038084 0.010562605038360156 0 0 0
107 1 8.13232376565042 16.393540139757924 2.8147819250613266 0 0 0
109 1 6.734829845872315 17.76778338846083 1.3744794341780344 0 0 0
113 1 10.98109371208685 16.4111589364295 21.756085715613832 0 0 -1
117 1 12.210853382512342 17.790676090726727 1.4732350985551468 0 0 0
115 1 13.619832094838245 16.319186260957316 2.623494617416876 0 0 0
121 1 16.286976386910386 16.184842719174654 0.007422270972307849 0 0 0
125 1 17.596337720318022 17.685194903120742 1.2366041999593078 0 0 0
123 1 19.1731565782958 16.359778502206588 2.6104320325300634 0 0 0
98 1 21.661019885205185 19.113475210588607 2.813886305288735 -1 0 0
100 1 2.7678116304805442 19.08198451815396 0.14488497276818108 0 0 0
104 1 4.251174238258228 20.36708553537545 1.4423417448925462 0 0 0
106 1 5.397089657203879 18.791769170281054 2.899430997010611 0 0 0
108 1 8.172243327054039 19.104299294068383 0.05773729106399572 0 0 0
112 1 9.635040336622103 20.35309318186155 1.347144397630932 0 0 0
114 1 10.823753896140143 19.102121426634778 2.714310262495913 0 0 0
116 1 13.580732684925605 19.101529392629534 0.010438221248502124 0 0 0
120 1 14.911106831655909 20.413096235236473 1.427782340968691 0 0 0
122 1 16.35027778952509 19.02566864585907 2.644026195897106 0 0 0
124 1 18.925877856653496 19.073542748351212 21.704424463356794 0 0 -1
128 1 20.27483940166845 20.376932236766326 1.3806061782474834 0 0 0
129 1 0.12370988738052996 0.009176573031784313 5.436270984793866 0 0 0
132 1 2.7694094631708777 2.7671145185966552 5.597856732012984 0 0 0
7 1 4.02330104046731 1.461530760945859 4.103678362894515 0 0 0
137 1 5.482373916180334 0.18221073948274757 5.574347314540693 0 0 0
140 1 8.316973031966493 2.587542704164299 5.399991748578461 0 0 0
15 1 9.577281768084388 1.269607429263759 4.13195041003892 0 0 0
145 1 11.099260388389798 0.08861718406988874 5.394230854642781 0 0 0
23 1 15.082201261512958 1.3950738278660746 4.092983862318941 0 0 0
148 1 13.624438571261834 2.7917744265856856 5.421069524205544 0 0 0
153 1 16.27466441002184 21.713914718128386 5.38915863840567 0 -1 0
31 1 20.553323006896058 1.384209936306708 4.037664549145714 0 0 0
156 1 19.108520994342847 2.636533100727604 5.301456694012596 0 0 0
6 1 1.284923333710455 4.1067381274224966 4.017031585175159 0 0 0
161 1 21.70958635931068 5.463302549421422 5.270792686981503 -1 0 0
169 1 5.451974316037407 5.435566594001436 5.38271809681804 0 0 0
14 1 6.8934294177439845 4.116065949158666 4.151359620726867 0 0 0
22 1 11.968487291807788 4.083633890119728 4.191029465231856 0 0 0
177 1 10.822654292291547 5.7476277077937965 5.465217038084217 0 0 0
30 1 17.796434538516557 4.195752584150241 4.018188761464726 0 0 0
185 1 16.3770411830974 5.512423136510627 5.479865106556979 0 0 0
164 1 2.593734009285506 8.116771924218474 5.334628885888194 0 0 0
39 1 3.9284738947256463 6.628424743365852 3.8920955508842936 0 0 0
172 1 8.07939404351786 8.329159328535816 5.421851985348055 0 0 0
47 1 9.39327065251699 6.792794796998797 4.024965812506073 0 0 0
55 1 14.704036390506305 6.909434798796443 4.14412574629085 0 0 0
180 1 13.564359304114536 8.505542668978578 5.39486857280468 0 0 0
63 1 20.412710329677026 6.9606032321576246 3.951593343533469 0 0 0
188 1 19.00216930344268 8.224913797268414 5.460142728837962 0 0 0
38 1 1.3260962336009796 9.578444788673782 4.0543443184465975 0 0 0
193 1 21.700825677124165 10.977157508485718 5.384853518673893 -1 0 0
71 1 4.04070062173006 12.322497696992691 4.005070643495493 0 0 0
201 1 5.373123912946072 10.99971503815743 5.437857214966149 0 0 0
46 1 6.555387516623209 9.555129302598026 4.203205780650469 0 0 0
54 1 12.108108100415963 9.727105678568412 4.080180512913744 0 0 0
79 1 9.332591387218653 12.128409489709298 4.167782294033416 0 0 0
209 1 10.863901531303394 10.989319522999411 5.489689587745358 0 0 0
87 1 14.935468778491773 12.25100112896547 3.998746424662839 0 0 0
62 1 17.51138372425533 9.494484867360807 3.999624550605163 0 0 0
217 1 16.258190425159313 10.826149414645695 5.416719177988729 0 0 0
95 1 20.28471816155522 12.139374413753574 4.043351614078172 0 0 0
70 1 1.188862380043899 14.952613284221739 4.337211309276612 0 0 0
196 1 2.69834112856189 13.724176783107485 5.514788996113717 0 0 0
78 1 6.872141960421141 14.97022959388487 4.154280099451465 0 0 0
204 1 8.15463254162903 13.56507839732129 5.511720510658275 0 0 0
86 1 12.376541528332027 14.937754847377995 3.8979788152663306 0 0 0
212 1 13.70325471930814 13.734417544606771 5.497471981714101 0 0 0
94 1 17.78016345533168 14.930227678445835 4.004830241536916 0 0 0
220 1 18.952147259287944 13.52279721784656 5.480275805929848 0 0 0
225 1 21.590640769215085 16.283246727060995 5.777426679327742 -1 0 0
103 1 3.979869576377743 17.58101966913966 4.154579864869332 0 0 0
233 1 5.4701511900949304 16.273714429849626 5.567639685688721 0 0 0
111 1 9.442761122653314 17.69504909639629 4.114358555050686 0 0 0
241 1 10.948737764207275 16.18388170859232 5.328966876963897 0 0 0
119 1 14.95420365155614 17.60283219619369 3.922144819290801 0 0 0
249 1 16.31271533154973 16.27239818247114 5.250436659137994 0 0 0
127 1 20.332689903901134 17.675823417254183 4.23533085705219 0 0 0
102 1 1.390941690699974 20.391150943697454 4.0365577894848865 0 0 0
228 1 2.6360244301269544 19.00999981177842 5.511316692675089 0 0 0
110 1 6.838779909995065 20.514618823070606 4.035652634646681 0 0 0
236 1 8.062264866083217 19.10966163414514 5.489805888325281 0 0 0
118 1 12.395099646918421 20.41146797669133 4.040801952554379 0 0 0
244 1 13.777653047030853 18.90105421728362 5.464798711208425 0 0 0
126 1 17.719598518307627 20.40318148544728 4.0727171716742445 0 0 0
252 1 18.95776208909321 19.015900393711355 5.593150877301944 0 0 0
130 1 0.02596011004103138 2.709404520654732 8.1678758933759 0 0 0
131 1 2.5927605183593823 21.51372970048314 8.221054564746913 0 -1 0
133 2 1.4315963951425617 1.4279934613621352 6.910916957468867 0 0 0
138 1 5.545885513052694 2.882556775887179 8.179891239407162 0 0 0
139 1 8.355610359711646 0.18182596886441843 8.11638417282889 0 0 0
141 1 6.8820409875723465 1.4646509667942256 6.6636343274390635 0 0 0
146 1 11.174178237818083 2.799639303941402 8.279968885377405 0 0 0
149 1 12.324840639637724 1.4267749005475017 6.734925989773823 0 0 0
147 1 13.664743114971282 0.16360359892806933 8.037725977026419 0 0 0
154 1 16.447861320292898 2.622032458061161 7.997270205643144 0 0 0
157 1 17.730782995973577 1.2264211859231002 6.583657602642704 0 0 0
155 1 19.048725346396626 21.64805405156902 7.969223042142868 0 -1 0
163 1 2.8194094351258103 5.723979221046315 8.066438912287207 0 0 0
136 1 4.14313076049925 4.209438692600141 6.739314437604525 0 0 0
171 1 8.36915036482016 5.29686151299776 8.144748595010787 0 0 0
144 1 9.651834325824156 4.022123887825879 6.749150900620355 0 0 0
152 1 15.078734614892433 3.9624611362623208 6.768996288995348 0 0 0
179 1 13.738741658476997 5.388537779664326 8.166744569501148 0 0 0
160 1 20.463036035709884 4.14067585596374 6.639695162649885 0 0 0
187 1 19.048247038862794 5.4365388158333765 8.121733203374378 0 0 0
162 1 21.565368773989526 8.266261667869736 8.301097169712294 -1 0 0
165 1 1.194768749926052 6.94637853696261 6.729965573641212 0 0 0
170 1 5.489390203081122 8.270701467576572 7.863519893934805 0 0 0
173 1 7.0171653989240035 6.668581872624336 6.792564160163002 0 0 0
178 1 10.945749589857131 8.296606916901391 8.164683577706047 0 0 0
181 1 12.427045327430662 6.966133888224036 6.713910161720853 0 0 0
186 1 16.179507102558677 8.046316390337035 8.125505552286716 0 0 0
189 1 17.6335447560151 6.893562087994953 6.67986686120809 0 0 0
195 1 2.446103549309264 10.946929342395661 8.050090254615622 0 0 0
197 1 1.2072013607301308 12.365667147540918 6.686888676255171 0 0 0
168 1 4.007919259636339 9.574025334545532 6.750249012620929 0 0 0
203 1 8.15412250316398 10.804769687416977 8.1034036354597 0 0 0
205 1 6.851089464607116 12.12697988727731 6.832101937600275 0 0 0
176 1 9.616588995940116 9.505646169384232 6.789231562608046 0 0 0
213 1 12.307082719226212 12.518711510702747 6.74912362203505 0 0 0
184 1 14.863647280833336 9.582875718349625 6.935135926828022 0 0 0
211 1 13.542046912903732 11.089246086526192 8.34282133886509 0 0 0
221 2 17.590630934582776 12.136036972915916 6.760497707431568 0 0 0
192 1 20.378451372500475 9.609206428542203 6.818147590146648 0 0 0
219 1 19.09994419396652 10.92756491111592 8.284858444246337 0 0 0
194 1 21.74458223742731 13.617664241546635 8.344069816728961 -1 0 0
200 1 4.351462496612323 14.852448418591317 6.883138538560051 0 0 0
202 1 5.59041742562581 13.474175212113485 8.171804839995378 0 0 0
208 1 9.574885268525676 14.922829005072495 6.9625768691415955 0 0 0
210 1 10.945265638160846 13.556384745087144 8.288215469455377 0 0 0
216 1 15.069167641359485 15.147984688245565 7.061741110685123 0 0 0
218 1 16.493455404952226 13.603563880824748 8.028178256417583 0 0 0
224 1 20.251597652856614 14.8249621319552 6.935734342233466 0 0 0
227 1 2.831926131052124 16.287422807945962 8.13165862882662 0 0 0
229 1 1.2673256268574977 17.68009627608516 6.93779845263461 0 0 0
235 1 8.226245763814214 16.265175756603846 8.34878520491407 0 0 0
237 1 6.855739446815483 17.59238153524324 6.970405124197365 0 0 0
245 1 12.242266237272437 17.740275070777404 6.71595649692589 0 0 0
243 1 13.363372827654148 16.351675658116594 8.284294328561563 0 0 0
253 1 17.616364795621944 17.5510362329847 6.868228088937056 0 0 0
251 1 18.821794700960687 16.014473879904394 8.303108228669876 0 0 0
226 1 21.736219742773024 18.874967769206965 8.335833862344904 -1 0 0
232 1 4.02403657688759 20.43311155750083 6.820361478079505 0 0 0
234 1 5.393816212499848 19.07089122374549 8.086210695922537 0 0 0
240 1 9.694995138821637 20.63062995436075 6.741096394178846 0 0 0
242 1 10.880462611674963 19.230991198198424 8.051194075877941 0 0 0
248 1 15.078412095886385 20.39932043085289 6.730589903618886 0 0 0
250 1 16.34103095162551 19.063246553477708 8.177530981158323 0 0 0
256 1 20.498159263927086 20.329963987865067 6.763785000555208 0 0 0
257 1 0.011423829050301091 0.0767569711373273 10.91849695772429 0 0 0
260 1 2.599346962785733 2.5933371194940813 10.815629044460163 0 0 0
261 1 1.393415202372481 1.3048867662728647 12.42027285632579 0 0 0
135 1 4.0468235574816385 1.3200732950298104 9.446960300513695 0 0 0
265 1 5.488515867283362 0.10010786697535622 10.737346606280651 0 0 0
268 1 8.181518085059288 2.641895574100321 11.083892899927129 0 0 0
269 1 6.711661855404852 1.4621284295544996 12.219811661436898 0 0 0
143 1 9.566372442554895 1.5536546302272145 9.611419465493837 0 0 0
273 1 10.73163091868108 0.1262670740274069 10.937268776169653 0 0 0
277 1 12.187632697911194 1.343594801305882 12.374478643145371 0 0 0
151 1 15.070019270541048 1.4605358171952543 9.56228394105177 0 0 0
276 1 13.615641951799294 2.6710329246874807 10.917109975985127 0 0 0
281 1 16.532651032470028 0.06022170649061067 10.91014856849665 0 0 0
285 1 17.806725462795928 1.3017191107573771 12.321403263655796 0 0 0
159 1 20.425089634246707 1.3962903618208218 9.46608025812818 0 0 0
284 1 19.16930687164296 2.637548552535073 10.884322033247948 0 0 0
134 1 1.408154013553113 4.134407637426653 9.571963697028746 0 0 0
289 1 0.0003442744396434477 5.284138064160873 10.808336415059294 0 0 0
264 1 4.030302486932762 4.1550115352226955 12.090284423014598 0 0 0
297 1 5.514390529723259 5.4652486440208845 10.839582392613314 0 0 0
142 1 6.8588825109705835 4.105419104743256 9.490551389106875 0 0 0
150 1 12.300465412741524 4.176798849996864 9.600119609036785 0 0 0
272 1 9.566577867632216 4.113155092290934 12.384921048458517 0 0 0
305 1 10.878923230367478 5.520597541080676 10.985178475433976 0 0 0
280 1 15.045640932075843 3.923807697208622 12.204804904677525 0 0 0
158 1 17.73929547008244 3.9477397866907635 9.573402582392355 0 0 0
313 1 16.327515892579953 5.427971502372504 10.737175203158303 0 0 0
288 1 20.330785845528528 4.148409242212995 12.35760708640654 0 0 0
292 1 2.7906767697412547 8.18254938630628 10.887255206258391 0 0 0
293 1 1.1506985501582936 6.743000176586859 12.167970837881775 0 0 0
167 1 4.252207019872377 7.0379956264977706 9.481496381140332 0 0 0
300 1 8.187526967043945 8.113202047850368 10.79851257629491 0 0 0
301 1 6.958906201611808 6.797470897375778 12.283281901993993 0 0 0
175 1 9.6168200697383 6.76511689338667 9.481231574557052 0 0 0
309 1 12.17760516883429 6.68562458221952 12.45729042459203 0 0 0
183 1 14.830795412504042 6.659052695892676 9.61856897922128 0 0 0
308 1 13.525057052837052 7.976360290911924 10.99660774894213 0 0 0
317 1 17.482111608074728 6.8417769438086555 12.317867292307941 0 0 0
191 1 20.330707027169005 6.779261534878885 9.569622727360832 0 0 0
316 1 18.796936344463923 8.174311818216008 11.046168258049754 0 0 0
166 1 1.3539016666283217 9.413257202011371 9.54850438255997 0 0 0
321 1 0.013819242761175564 10.657431783551784 10.974847455593586 0 0 0
325 1 1.4425140273797115 12.11107774456758 12.306510049056836 0 0 0
199 1 4.050099325566195 12.239516029465472 9.38275378469457 0 0 0
296 1 4.133970492578127 9.576724210728868 12.25114655148477 0 0 0
329 1 5.461134248040358 10.878172077612188 10.766897550511171 0 0 0
174 1 6.844615230431714 9.276434325837162 9.428813061033686 0 0 0
333 1 6.850433257369843 12.373503790620957 11.996599039207771 0 0 0
182 1 12.265632964908288 9.51285914115371 9.523596837005575 0 0 0
207 1 9.619569961875001 12.141064274480003 9.411957529666951 0 0 0
304 1 9.565422128513775 9.603506411580588 12.06605996124605 0 0 0
337 1 11.034920140987854 10.942551181402662 10.927092119247382 0 0 0
341 1 12.519718013874343 12.233719130830591 12.396677270752868 0 0 0
215 1 15.087451138823317 12.404904639361991 9.559798724551714 0 0 0
312 1 14.953080906812465 9.435597723414899 12.458823131900848 0 0 0
190 1 17.52154195268804 9.463583241147052 9.550770656692109 0 0 0
345 1 16.26749772189169 10.811841230058704 10.813542190193303 0 0 0
349 1 17.600883757550687 12.08687638801546 12.386408462021786 0 0 0
223 1 20.45830529546284 12.180524268471558 9.807983811041675 0 0 0
320 1 20.30734979519366 9.510413842031445 12.19573498087017 0 0 0
198 1 1.4166037898538246 14.891645301241724 9.541419446845165 0 0 0
324 1 2.7879966807878414 13.500987141015873 10.8285794136013 0 0 0
328 1 3.939322130941448 14.84387623884385 12.247626437115478 0 0 0
206 1 6.935454201600571 14.847662924046926 9.563228533058396 0 0 0
332 1 8.454899355486093 13.595398792763046 10.770230512687998 0 0 0
214 1 12.293165636893459 14.885387251970457 9.773094013863293 0 0 0
336 2 9.701850497715295 15.010167236919667 12.18474682933849 0 0 0
340 1 13.73697574227676 13.644838604719599 11.050852814528385 0 0 0
344 1 15.076320596054886 15.025913230087891 12.401606584234031 0 0 0
222 1 17.612954488148677 14.839542457504695 9.841880613553858 0 0 0
348 1 18.921278847331852 13.309358912169781 11.2248037049112 0 0 0
352 1 20.32987793485946 14.698899220821913 12.267422675787877 0 0 0
353 1 0.08838841149604938 16.08344563856109 10.964603075197111 0 0 0
357 1 1.2464246865289532 17.67750382502612 12.28220218009532 0 0 0
231 1 4.2297079762930245 17.69949049161062 9.602809280451778 0 0 0
361 1 5.549516990871557 16.2867421538928 10.869449453686695 0 0 0
365 1 6.82505606957569 17.80131269330135 12.250547384211046 0 0 0
239 1 9.710962742461716 17.751505777540803 9.45512198050454 0 0 0
369 1 10.943710366668903 16.313437528023442 10.986832685305075 0 0 0
373 1 12.214680772953493 17.628006831466884 12.205635948474333 0 0 0
247 1 14.855659639412726 17.84262413230815 9.488545744567146 0 0 0
377 1 16.251543886011554 16.43899738451463 10.918755821810233 0 0 0
381 1 17.568599871224954 17.69670791353634 12.258071759755286 0 0 0
255 1 20.20944715894382 17.53479996942415 9.589402316825714 0 0 0
230 1 1.2827905064577152 20.337516318710353 9.747620132646599 0 0 0
356 1 2.6851886728933128 18.819475984906706 10.920861876614364 0 0 0
360 1 4.044399807787618 20.319738060210675 12.014006727258522 0 0 0
238 1 6.889844516670222 20.525419375224747 9.418943765514845 0 0 0
364 1 8.202829857081756 19.111602781134735 10.697622986819093 0 0 0
246 1 12.263777113438396 20.55270377862153 9.44455323626645 0 0 0
368 1 9.414627296761187 20.35694478978903 12.082126602051963 0 0 0
372 1 13.56167716251934 19.34544640772654 10.900638867019657 0 0 0
376 1 15.045355599563338 20.61425965996573 12.3622843257118 0 0 0
254 1 17.860958392472117 20.390867716415347 9.514805696412315 0 0 0
380 1 19.07422466013228 19.027078897785227 11.01313812473304 0 0 0
384 1 20.534687581677748 20.375525824651113 12.199192780944912 0 0 0
258 1 21.74186340857979 2.5353195644433124 13.739081994081914 -1 0 0
259 1 2.8617303159020264 21.600930934767 13.59294818241106 0 -1 0
263 1 4.154501024977447 1.359897788154799 14.947631701608529 0 0 0
266 1 5.447063074933359 2.798948484690634 13.678216058604505 0 0 0
267 1 7.9596714212711195 21.64120264310416 13.379569333072281 0 -1 0
271 1 9.32754351326045 1.2860087119296242 14.947695921218534 0 0 0
274 1 10.845352997052396 2.775872745446207 13.680246037995943 0 0 0
275 1 13.75291909703624 0.06213211380019688 13.491180760090124 0 0 0
279 1 15.021053775283765 1.470082131776631 14.960044318627066 0 0 0
282 1 16.335332005398808 2.676854174509764 13.561707435926817 0 0 0
283 1 19.069594503057807 21.5480741283068 13.551709523017212 0 -1 0
287 1 20.337909569595215 1.0856121830453718 15.01913414841065 0 0 0
262 1 1.3733824951092717 4.07162855952416 14.919844602946775 0 0 0
291 1 2.6909198364554228 5.521203092977525 13.606271856407954 0 0 0
270 1 6.864249445148172 4.057487563386016 15.095683152166078 0 0 0
299 1 8.292054261569657 5.39855151676789 13.71067040442321 0 0 0
278 1 12.16600293475465 3.986262046249655 15.071795123334361 0 0 0
307 1 13.562414888867247 5.233772670379854 13.656196680933542 0 0 0
286 1 17.70819749979233 3.987174365948434 14.958494152353843 0 0 0
315 1 18.94092080326048 5.433015258982438 13.621331409679867 0 0 0
290 1 21.69667496648397 8.143653713740333 13.508405979771775 -1 0 0
295 1 4.080442566415665 6.915541377182007 14.841972510259616 0 0 0
298 1 5.472296776133972 8.085918337480418 13.570178683030422 0 0 0
303 1 9.475755685343827 7.012585339345022 15.111666412580472 0 0 0
306 1 10.872032674454017 8.159029046319283 13.583351119838532 0 0 0
311 1 14.84261826263079 6.646490509991965 15.213640863619597 0 0 0
314 1 16.238458139606408 7.964671033694168 13.794544565346103 0 0 0
319 1 20.290682311651995 6.763223782292792 14.912488706240344 0 0 0
294 1 1.3079585363529433 9.430475714128006 14.860487753843293 0 0 0
323 1 2.7558169668263677 10.805996118673546 13.545288505329815 0 0 0
327 1 3.9829811401051263 12.413183670098274 14.882849101567073 0 0 0
302 1 6.773255274596394 9.62148200615261 14.846076571404943 0 0 0
331 1 8.084846006620975 10.837916422057559 13.439162603570486 0 0 0
310 1 12.177959222182714 9.570938672586916 15.196771782603001 0 0 0
335 1 9.379022386675874 12.251839867099683 15.004311054786069 0 0 0
339 1 13.555234011402604 10.726220864867711 13.770854458075666 0 0 0
343 1 14.975247938601658 12.241211750323066 15.182150399079555 0 0 0
318 1 17.52558455909673 9.350208175145152 15.055125465286196 0 0 0
347 1 18.9442021837593 10.753148681709597 13.753926577192564 0 0 0
351 1 20.278241391137975 12.190930617921746 14.896287375616332 0 0 0
322 1 21.66063668521879 13.460918259824819 13.601382928289944 -1 0 0
326 1 1.2285919525026723 14.907066486748855 14.897443665917617 0 0 0
330 1 5.419858336027676 13.55246097515052 13.414740617113864 0 0 0
334 1 6.878891523394778 14.915397760639879 14.807404106167096 0 0 0
338 1 10.910149956708336 13.606980235270523 13.643606524582545 0 0 0
342 1 12.327769225220734 15.011880471178522 15.009547956571037 0 0 0
346 1 16.22989737271283 13.486125022997719 13.675688332859625 0 0 0
350 1 17.568702549417313 14.961592850609374 14.995361445553952 0 0 0
355 1 2.6355805770085863 16.267631275785103 13.715173379185392 0 0 0
359 1 4.009595589653517 17.646824376863947 14.838319287132979 0 0 0
363 1 8.151728545565557 16.12622214996853 13.376469488203224 0 0 0
367 1 9.64566647232083 17.57928610464785 14.787237427799104 0 0 0
371 1 13.617084477885992 16.417457013579664 13.586860054154299 0 0 0
375 1 14.991279752222738 17.62541100540479 15.02047175167553 0 0 0
379 1 18.915683120962893 16.270304142595812 13.568402136112265 0 0 0
383 1 20.444187590554172 17.652204759634607 14.921127407808761 0 0 0
354 1 0.06408676463805704 19.058719236935005 13.65401926347805 0 0 0
358 1 1.3633778252070055 20.3118806525841 15.046491493287428 0 0 0
362 1 5.328331409765504 19.083402172771763 13.509413349846163 0 0 0
366 1 6.841505101982807 20.432576701391962 14.988705015991867 0 0 0
370 1 10.87996714814996 19.048120444239398 13.362562609342948 0 0 0
374 1 12.20190108461085 20.398517922406302 14.720810619580812 0 0 0
378 1 16.277456775362243 19.003993232816402 13.671738855133245 0 0 0
382 1 17.65989917281019 20.362396581958546 15.035736826813606 0 0 0
385 1 0.10335744773431312 21.534221583446953 16.27632717637954 0 -1 0
388 1 2.6348619738384174 2.763130156921621 16.229024382112055 0 0 0
389 1 1.4474879443018072 1.2461921700732992 17.57058622775634 0 0 0
393 1 5.564909766944931 0.02556731574946907 16.24336654179847 0 0 0
396 1 8.134805614137035 2.721495378109585 16.370999484015506 0 0 0
397 1 6.883018504567033 1.310595506025375 17.659677698146556 0 0 0
401 1 10.88269579049359 21.67577846880062 16.14916755125145 0 -1 0
405 1 12.104414924700817 1.3068647451738489 17.668343076703113 0 0 0
404 1 13.536712609451115 2.681806090379018 16.32210091919307 0 0 0
409 1 16.285334475760017 21.714515139944446 16.38684329556969 0 -1 0
413 1 17.678513037096096 1.3267772698580664 17.564226477927498 0 0 0
412 1 19.057655995294347 2.677934017752109 16.244106406605553 0 0 0
417 1 0.08228332378608483 5.62145167687962 16.112443948824172 0 0 0
392 1 4.097017951357029 4.029259087544137 17.48415982074091 0 0 0
425 1 5.362481363934951 5.677507304672013 16.328528979632353 0 0 0
400 1 9.555324029703788 4.21790490263134 17.697332613480608 0 0 0
433 1 11.02975760839308 5.538750021057351 16.399384514636782 0 0 0
408 1 14.886721559466432 4.101577829846789 17.763406330582274 0 0 0
441 1 16.29097204712623 5.309454134653577 16.43747808359426 0 0 0
416 1 20.596795394465538 3.9335678037225845 17.50743825793948 0 0 0
420 1 2.6845002220790284 8.277516272148464 16.270798038334355 0 0 0
421 1 1.244162025134363 6.997849314251425 17.620684683436693 0 0 0
428 1 8.027701172768419 8.53970014727123 16.367806022363816 0 0 0
429 1 6.718335818948123 6.983040051801806 17.629945812508588 0 0 0
437 1 12.352805674360813 6.941545352778399 17.714538552663008 0 0 0
436 1 13.664117529464685 8.166448393870272 16.410784719267536 0 0 0
445 1 17.86550313446207 6.639617853037629 17.631217934467628 0 0 0
444 1 19.056278277987584 8.225774178940759 16.333856552929173 0 0 0
449 1 0.04391130379758287 10.765584546496651 16.295573995432257 0 0 0
453 1 1.3395477063165206 12.154951437278346 17.65499740433789 0 0 0
424 1 4.020248880821724 9.578050428936978 17.732608343829174 0 0 0
457 1 5.373919184862059 10.912441384630018 16.230422925102538 0 0 0
461 1 6.761364123022396 12.2192941767634 17.59792350730958 0 0 0
432 1 9.451560942169857 9.75123079193505 17.86089287626634 0 0 0
465 1 10.747499299516452 10.877371079195912 16.359900995884644 0 0 0
469 1 12.302273734323473 12.282754865351425 17.559577559809675 0 0 0
440 1 15.113267866199545 9.391273483665076 17.766531345399173 0 0 0
473 1 16.28967173842416 10.710573721812665 16.412824084874774 0 0 0
477 2 17.624937818706684 12.31197659790937 17.695467186675092 0 0 0
448 1 20.398145027110743 9.569938007419317 17.644445767200796 0 0 0
452 1 2.698742240456941 13.766334527539737 16.304646581383253 0 0 0
456 1 4.167126249752206 14.940672584254338 17.516550358026763 0 0 0
460 1 8.123689929261685 13.675153705073072 16.239438018472857 0 0 0
464 1 9.61169730216482 14.998979250401117 17.6556730836049 0 0 0
468 1 13.525229966307608 13.795248711058905 16.403400935881653 0 0 0
472 1 15.089107501745731 14.921760312024805 17.713494861737285 0 0 0
476 1 19.01195011259049 13.616637551603747 16.21903600298284 0 0 0
480 1 20.408253461380948 14.895578097912969 17.716523489791168 0 0 0
481 1 0.052838001702139176 16.30663375525046 16.280489852581237 0 0 0
485 1 1.4767209673643795 17.5329860083629 17.791005715215764 0 0 0
489 1 5.558378810862218 16.31457404730074 16.22453094030421 0 0 0
493 1 7.0590580323017935 17.62867389470175 17.584412497099606 0 0 0
497 1 10.922428402594237 16.28660403104893 16.396910161148448 0 0 0
501 1 12.294515634138714 17.65299796073287 17.54389392110124 0 0 0
505 1 16.383770892677695 16.438022154710822 16.54696254033073 0 0 0
509 1 17.791618003567347 17.789834555893407 17.877323051606425 0 0 0
484 1 2.7401500916107926 18.978604740725704 16.4934014814534 0 0 0
488 1 4.03181115714759 20.478327948209312 17.705014937760378 0 0 0