LAMMPS data file via write_data, version 29 Aug 2024, timestep = 10000000, units = metal

512 atoms
2 atom types

0 21.77481 xlo xhi
0 21.77481 ylo yhi
0 21.77481 zlo zhi

Masses

1 28.0855
2 12.011

Atoms # atomic

1 1 21.684132255821098 21.674391503814515 21.70140760054761 -1 -1 -1
2 1 21.771259408283147 2.7346408297520415 2.6579558038071647 -1 0 0
3 1 2.661961328542608 0.17959992161547056 2.7515550870581316 0 0 0
4 1 2.9716840245564464 2.724069730019603 21.660618863167077 0 0 -1
5 1 1.3354433395552066 1.3163678554109772 1.1279564960403723 0 0 0
9 1 5.679963945048438 21.564176309037038 21.67161368805698 0 -1 -1
10 1 5.493677708314025 2.6799838938598204 2.631727493124703 0 0 0
11 1 8.292398921669141 0.19220624615112086 2.6994152985626956 0 0 0
12 1 8.168540042901522 2.7024724807967404 21.711865787877954 0 0 -1
13 1 6.823845429030251 1.3264375778873592 1.255707590446149 0 0 0
17 1 10.883166921215517 0.026354752866433455 21.708222806003366 0 0 -1
18 1 10.903866359820654 2.775037364556901 2.475238226852928 0 0 0
21 1 12.235344212835598 1.3238496326914961 1.1736045516629372 0 0 0
19 2 13.552536899135045 0.1429297830389753 2.5648281240556425 0 0 0
20 1 13.588790213288526 2.712237528304806 21.75999034432432 0 0 -1
25 1 16.22045244473166 0.07094289741536013 21.554526291475316 0 0 -1
26 1 16.221766509917252 2.784299491210796 2.757733899049746 0 0 0
29 1 17.60938893700691 1.5328575058346678 1.4313108470317288 0 0 0
27 1 18.95793410792365 21.741869953318574 2.7574019971611103 0 -1 0
28 1 18.973625233679495 2.798889243353652 21.6483035142288 0 0 -1
33 1 0.04935508668270176 5.404560320277052 21.581329598665974 0 0 -1
35 1 2.784127110689982 5.268505397154165 2.7341346409018197 0 0 0
8 1 4.266803094370142 4.107008918809442 1.2163058011634056 0 0 0
41 1 5.5245442625059065 5.601702137516832 21.689587665923202 0 0 -1
43 1 8.059465578147869 5.357751488364495 2.8918130392672525 0 0 0
16 1 9.432526605027393 4.138552101708055 1.2812974193474482 0 0 0
49 1 10.63519442403443 5.457047045811729 21.667790102071734 0 0 -1
24 1 14.842387775827662 4.048616724449741 1.357080493952937 0 0 0
51 1 13.487293138367454 5.615111271469581 2.6490350812387593 0 0 0
57 1 16.36003913599062 5.425114268672924 0.035268660524092485 0 0 0
32 1 20.539117341084406 4.015952626380583 1.1287560964298402 0 0 0
59 1 19.230632190848926 5.525439007430582 2.6130020233595306 0 0 0
34 1 0.02587253824926835 8.07314816523921 2.7296737312302084 0 0 0
36 1 2.6618138992079663 8.058358172683915 0.272835804504389 0 0 0
37 1 1.356668200858553 6.5694601558280405 1.4386361082014776 0 0 0
42 1 5.5727167844092005 8.116733188523323 3.033160247930799 0 0 0
44 1 7.89132212836918 8.03973144810036 0.00890975092827768 0 0 0
45 1 6.710144387087203 6.7615181361814995 1.562397172221676 0 0 0
50 1 10.736699828039571 8.254675341545541 2.6380111074817676 0 0 0
53 1 12.27897100804038 6.87890059108553 1.2300135304248792 0 0 0
52 1 13.80150707273257 8.327072299675898 0.022762805388457305 0 0 0
58 1 16.27977748279161 8.146691454821633 2.727177930599258 0 0 0
61 1 17.569811605649818 6.7682509933754424 1.4810683923491712 0 0 0
60 1 18.988134153322992 8.036679999348074 0.20598878660952208 0 0 0
65 1 0.06873809828529957 10.842195838525212 0.07133699705360039 0 0 0
67 1 2.502857697065889 10.993878224690134 2.685765813866455 0 0 0
69 1 1.3244659868553426 12.361144994986482 1.349053388145933 0 0 0
40 1 4.006357433091208 9.438257039066722 1.7211737304432286 0 0 0
73 1 5.27221015496885 10.812463007992566 0.17396497229011335 0 0 0
75 1 8.09306764104811 10.871273454166436 2.491959336856317 0 0 0
77 1 6.797033285126912 12.27161797055887 1.3440491832705583 0 0 0
48 1 9.45110932115214 9.388346657534523 1.2316821822605062 0 0 0
81 1 11.019303183007155 10.873419268954649 21.752840696246825 0 0 -1
85 1 12.395106822149955 12.148188109814097 1.2712037642500904 0 0 0
56 1 15.180674540076751 9.664080527609721 1.2631140454331542 0 0 0
83 1 13.783170830627665 10.749909105490424 2.5408441194829456 0 0 0
89 2 16.638121008967232 10.949219221240526 21.76803958713792 0 0 -1
93 1 17.707904981010085 12.383241100994342 1.5382419318853393 0 0 0
64 1 20.40446308966272 9.594446147910235 1.6148276078110322 0 0 0
91 1 18.91736756481069 10.875310716932168 2.871524711324116 0 0 0
66 1 0.07402964699090366 13.631939269709461 2.7132280087972265 0 0 0
68 1 2.790445434260056 13.53952608179068 0.04816078838553013 0 0 0
72 1 4.057843272451213 15.063218467436691 1.3718517278179636 0 0 0
74 1 5.410021437194871 13.674908144957165 2.7598798116022953 0 0 0
76 1 8.318356324082115 13.43525109032506 0.017155709871569624 0 0 0
80 1 9.457455800079673 14.954179240796748 1.332153071111181 0 0 0
82 1 10.860768854408686 13.63766656675506 2.7480370572263566 0 0 0
84 1 13.79303969620971 13.62161902452902 21.66471072779218 0 0 -1
88 1 14.796596640126163 14.988407100879948 1.3214778525710302 0 0 0
90 1 16.356416831945534 13.800981231871512 2.8933073149346855 0 0 0
92 1 18.97485220705376 13.601061270912945 0.0020223173478657744 0 0 0
96 1 20.29217447433599 14.940049476261676 1.4870295049703914 0 0 0
97 1 0.024038333889786462 16.45036687282855 0.19510132947323153 0 0 0
99 1 2.6988340205658097 16.565477475594193 2.7175828825984243 0 0 0
101 1 1.2659635617426892 17.85801772141316 1.1935595118720526 0 0 0
105 1 5.460712069019662 16.37652222870778 21.72795307445525 0 0 -1
107 2 8.145591475390146 16.29867666234621 2.6063981515720522 0 0 0
109 1 6.945989332805502 17.78781456837461 1.2880447057144166 0 0 0
113 1 10.957456332861696 16.443481313877328 21.598256416190267 0 0 -1
117 1 12.327881971460359 17.612390873585703 1.3667734521431865 0 0 0
115 1 13.568355790478261 16.342127278316994 2.8072487336710266 0 0 0
121 1 16.21223672900211 16.344401858832164 0.009152458733841257 0 0 0
125 1 17.572546922430224 17.812721965371335 1.2840970347037894 0 0 0
123 1 18.89217929080502 16.40730502546874 2.819895945757325 0 0 0
98 1 21.625585478651438 19.175124687945278 2.715196591087603 -1 0 0
100 1 2.643230495358464 18.999200483055212 21.71688313066398 0 0 -1
104 1 4.0184929876378845 20.5109086790376 1.2475230760184666 0 0 0
106 1 5.396973688363104 19.23755434952503 2.6802904113092683 0 0 0
108 1 8.318006961012102 19.043224703152593 21.61675760633364 0 0 -1
112 1 9.499621570237212 20.524272849320347 1.2432698698687765 0 0 0
114 1 10.868177618184474 19.07624462078453 2.4996745037755335 0 0 0
116 1 13.54453698577796 18.99798893997809 21.750260261776234 0 0 -1
120 1 14.96123952142751 20.409409992072383 1.2579570946118124 0 0 0
122 1 16.192352574869552 19.04482876138205 2.7592096726384816 0 0 0
124 1 19.127447446143034 18.898686126934425 21.656657466802283 0 0 -1
128 1 20.323351337945887 20.504745377927154 1.3235521621031148 0 0 0
129 1 21.661815422216865 0.2056740888664687 5.578833650423631 -1 0 0
132 1 3.0999227366623767 2.5738805054748233 5.50794678073882 0 0 0
7 1 4.377625758729782 1.3202768436600365 3.9797013546579856 0 0 0
137 1 5.740726950866888 0.06883051656960486 5.436435890693844 0 0 0
140 1 8.200456416799206 2.7395220512981355 5.546361971517796 0 0 0
15 1 9.494176918473821 1.5695898759051812 4.0409779827293075 0 0 0
145 1 10.973042507923715 0.05434122307281917 5.298220432934918 0 0 0
23 1 14.731318842262633 1.6024298266918244 3.9113179254959145 0 0 0
148 1 13.519049789759652 2.874880185714375 5.383031272805329 0 0 0
153 1 15.956750969159579 0.19677068832128733 5.423386390892083 0 0 0
31 1 20.369309767838338 1.3507593959490936 3.7444312440409058 0 0 0
156 1 19.132992844413337 2.6257819754367753 5.383128809802846 0 0 0
6 1 1.3929995005329414 3.9099715159383366 4.214864367967952 0 0 0
161 1 0.18496383835566016 5.462683939941595 5.415474382011853 0 0 0
169 1 5.427742676969673 5.4449521413493756 5.394856326669723 0 0 0
14 1 6.7522569392309935 4.0525116357817845 4.149938791469166 0 0 0
22 1 12.26308059846583 4.177620647965898 3.7134653003605793 0 0 0
177 1 10.838286054577761 5.418268305980379 5.314246765926571 0 0 0
30 1 17.83521038829028 4.253314422231803 4.141073805595649 0 0 0
185 1 16.423605004360212 5.363557079460148 5.519771499933287 0 0 0
164 1 2.449621680653532 8.013932563139154 5.447617766301611 0 0 0
39 1 3.8540043323513027 6.802894026632852 3.9965781100961117 0 0 0
172 1 8.32683245290347 8.414987046440505 5.40804076417047 0 0 0
47 1 9.397522222344353 6.939859358368316 4.201872408679593 0 0 0
55 1 15.112405870597224 6.702553814639772 3.926333470916099 0 0 0
180 1 13.678748374384636 8.159255998669055 5.330801076983571 0 0 0
63 1 20.32718126359873 6.87219103819981 4.147634901903537 0 0 0
188 1 19.1309261942257 8.193788768592544 5.4664805502572005 0 0 0
38 1 1.2092246895062018 9.769158440244949 4.188245981308513 0 0 0
193 1 21.6738533939695 11.116298537734652 5.736148208568557 -1 0 0
71 1 4.033335468360133 12.246705450603319 3.9777344207403638 0 0 0
201 2 5.439449518270893 10.826648352180234 5.4718121004801645 0 0 0
46 1 6.7627805617245516 9.556236357804 4.159374635546741 0 0 0
54 1 12.192590228084084 9.561256804634539 4.015962312633042 0 0 0
79 1 9.35751293133325 12.178666398636292 3.9969062260140076 0 0 0
209 1 10.929876638587235 10.802048126268623 5.41314341269827 0 0 0
87 1 15.127105089781068 12.150205550580267 3.869508300250739 0 0 0
62 1 17.63033716549897 9.413957307096306 4.1369135019294 0 0 0
217 1 16.434070988287285 10.856873095189757 5.45719386124551 0 0 0
95 1 20.371486285241062 12.315303507914164 4.183357733277428 0 0 0
70 1 1.398790513737454 15.003489872781307 3.971427852144716 0 0 0
196 2 2.775669862294354 13.64894982166611 5.261128843241177 0 0 0
78 1 6.664405206111834 15.021831218790666 4.050814223518789 0 0 0
204 1 8.059741496449629 13.593339674948231 5.502078314277636 0 0 0
86 1 12.141929156347484 14.97612639942284 4.167546217187875 0 0 0
212 1 13.589148771531743 13.450481807946405 5.179210977359143 0 0 0
94 1 17.69356547006688 15.190979881776073 4.29982631180757 0 0 0
220 1 19.14379335166908 13.675098667830813 5.76772961874941 0 0 0
225 1 0.06600416975815562 16.499843825769336 5.274533939444442 0 0 0
103 1 3.8862401188891855 17.820760476775643 4.371589979156704 0 0 0
233 1 5.573690134044235 16.423188999411522 5.516631904342471 0 0 0
111 1 9.62245267084329 17.50441621340343 3.988814034026752 0 0 0
241 1 10.957275168024378 16.33139045384356 5.523990902452531 0 0 0
119 2 14.932765203219274 17.632875311696115 4.068329809697264 0 0 0
249 1 16.165563883757486 16.521592672724342 5.624892459748134 0 0 0
127 1 20.32211560005397 17.89316242621707 4.240378478654676 0 0 0
102 1 1.2239587977901414 20.59230701000207 4.233866266196838 0 0 0
228 1 2.756354838834877 19.40630345822655 5.515304859738481 0 0 0
110 1 6.993982059188775 20.58150449987175 4.091954844207573 0 0 0
236 1 8.385554106599995 19.09275613766629 5.334360230350168 0 0 0
118 1 12.201630352144807 20.436128022272733 3.8145709368745946 0 0 0
244 1 13.652427850550472 19.17795277762566 5.156327262614955 0 0 0
126 1 17.365714427241574 20.505407574920962 4.23697409636403 0 0 0
252 1 19.026960965918303 19.27557559361857 5.6002269986435715 0 0 0
130 1 0.085839438775555 2.4388659549099834 8.036767109840813 0 0 0
131 1 2.925823950730017 0.02326613746066958 8.421057352981533 0 0 0
133 1 1.5720153931897571 1.0968246007136822 6.944374649472391 0 0 0
138 1 5.798233275714051 2.875391525787245 8.148197303840112 0 0 0
139 1 8.329102481090176 21.662899195336227 8.152591866432555 0 -1 0
141 1 7.070609669257236 1.3692835824437186 6.84789799356343 0 0 0
146 1 11.058387572203802 2.703743346149333 7.9896371507339605 0 0 0
149 1 12.26928576722628 1.4069251296353014 6.60823968885711 0 0 0
147 1 13.593753321239705 0.318860741393194 7.961012791166277 0 0 0
154 1 16.43202407930788 2.526030755957131 7.952263800806655 0 0 0
157 1 17.79510840472367 1.1277964103830775 6.715546888284014 0 0 0
155 1 19.068665923539793 21.635182831805274 8.159951961441148 0 -1 0
163 1 2.733339091943819 5.428998564793976 8.131111218109263 0 0 0
136 1 4.223830579184263 3.978921238993369 6.9444438997256315 0 0 0
171 1 8.25765342919266 5.592172442450485 7.886998855537092 0 0 0
144 1 9.593357199634351 4.080779481268349 6.806757957752394 0 0 0
152 1 15.007692268370372 3.9217489403553984 6.763953095844896 0 0 0
179 1 13.639280661967147 5.402044802479765 8.043511136262833 0 0 0
160 1 20.53104994931311 4.057240887227002 6.692722660347354 0 0 0
187 1 19.199881840892267 5.2375215431296285 8.345227834476617 0 0 0
162 1 21.610887975443088 8.100353662937664 8.34462262861677 -1 0 0
165 1 1.2766298190234882 6.866514285587923 6.900088246127014 0 0 0
170 1 5.404796099369278 8.263890100233251 8.134010952351396 0 0 0
173 1 6.731751578069114 6.986634827743171 6.663963476592499 0 0 0
178 1 10.885440618040102 8.26615425846282 8.058879005231514 0 0 0
181 1 12.310341977611548 6.767553415417588 6.623094742179711 0 0 0
186 1 16.44487616342549 7.919771423010745 8.187285662246833 0 0 0
189 1 17.839590139527612 6.575059405349579 6.978168723491349 0 0 0
195 1 2.4341593778706416 10.812149640275315 8.168367637449473 0 0 0
197 1 1.4545301464461806 12.461764902426742 6.803860255333778 0 0 0
168 2 3.804547630997697 9.552529301655483 6.742057259234394 0 0 0
203 1 8.049175727448782 10.974341619288461 8.144985190925745 0 0 0
205 1 6.517218260341924 12.265025020394223 6.735901521017182 0 0 0
176 1 9.672006628144421 9.645141635741526 6.8592428872766105 0 0 0
213 1 12.186424949140244 12.149052996032173 6.6434164725941764 0 0 0
184 1 15.070495471548622 9.322758913772134 6.7851591064865815 0 0 0
211 1 13.655557969609001 10.802315225299719 8.024242868480783 0 0 0
221 1 17.59315009966267 12.301528872027175 6.976858768606802 0 0 0
192 1 20.39292181959775 9.379303645128614 7.1385565007589245 0 0 0
219 1 18.90990268645515 10.914364002741594 8.412794059896134 0 0 0
194 1 0.21260584142930164 13.752337380385798 8.239215518309955 0 0 0
200 1 4.1439245426283104 14.937890218808379 6.854563091556509 0 0 0
202 1 5.3100209515578225 13.767143857277262 8.316605305361826 0 0 0
208 1 9.579310625234083 14.968613021521845 6.691907004247258 0 0 0
210 1 10.899559378258981 13.59526691361569 8.183027648398307 0 0 0
216 1 14.709440653238342 14.852750572395385 6.680746308551075 0 0 0
218 1 16.149694139327828 13.75607861984887 8.221274407202166 0 0 0
224 1 20.606355076984944 15.016030023231286 6.85665783879394 0 0 0
227 1 2.699854003047441 16.21569731768271 8.103410433681749 0 0 0
229 1 1.4950086795821067 17.778117772475756 6.8068222577059005 0 0 0
235 2 8.361849337413972 16.33596087574383 8.171316074637316 0 0 0
237 1 7.022546722030739 17.771232997844237 6.8516771393078475 0 0 0
245 1 12.24764791347924 17.776118051766478 6.780377589840209 0 0 0
243 1 13.603444816231589 16.398697010127144 8.103716533541 0 0 0
253 1 17.77822780611292 17.830050698323774 6.9040941635581135 0 0 0
251 1 19.171363036236567 16.268683280737555 8.216344215522422 0 0 0
226 1 0.03222802539202829 19.056419901335246 8.27719063715239 0 0 0
232 1 4.14430852787213 20.640284888518266 6.913439340086981 0 0 0
234 1 5.482015642659757 18.961950416374027 8.120025040806176 0 0 0
240 1 9.687159427530121 20.42882187834813 6.7130535152139625 0 0 0
242 1 11.004288960745749 19.254544673265656 8.164523485526713 0 0 0
248 1 14.735339870111474 20.648223390034904 6.677448744122145 0 0 0
250 2 16.217032116480198 19.146322569657915 8.02814383324927 0 0 0
256 1 20.460950716363897 20.456824392229844 6.925676777294218 0 0 0
257 1 21.756276002092708 0.16518638955173479 10.96278330539111 -1 0 0
260 1 2.7993168575766147 2.7194754403493686 10.833412303086092 0 0 0
261 1 1.441490288702851 1.4625373905947172 12.273066387445024 0 0 0
135 1 4.3378071809718195 1.4535362660479836 9.530844902256852 0 0 0
265 1 5.491341461167277 0.0643138531211293 10.923563651032536 0 0 0
268 1 8.197475725360576 2.812345363473929 10.776836663988467 0 0 0
269 1 6.926385903621504 1.3104950769748305 12.251900659737524 0 0 0
143 1 9.767783923084059 1.4157323133053503 9.585380117530011 0 0 0
273 1 10.848452204916311 21.684348582673497 10.94522310644918 0 -1 0
277 1 12.34161599425867 1.244617609167147 12.217031323536158 0 0 0
151 1 15.065062575360937 1.2956390150522368 9.428009304175344 0 0 0
276 2 13.687813957563286 2.5711137763330623 10.751634900842904 0 0 0
281 1 16.40413746792504 0.015502895212807509 10.970962753464905 0 0 0
285 1 17.760369255815064 1.3444734068408533 12.334920983945395 0 0 0
159 1 20.4634993129639 1.312213975531392 9.619171296086746 0 0 0
284 2 19.07256279798903 2.6719893878750804 10.804780337992337 0 0 0
134 1 1.526482453060077 3.971512061445008 9.410259031289756 0 0 0
289 1 0.16267827954320802 5.3237204818679595 10.791607251667887 0 0 0
264 1 4.298625627297493 4.079776620262019 12.394816207854895 0 0 0
297 1 5.502115948292255 5.5151459071093365 10.919487561706477 0 0 0
142 1 6.912120063074657 4.351909056877559 9.668993265151123 0 0 0
150 1 12.436356032168867 4.011292511267477 9.326044581678984 0 0 0
272 1 9.645883936764092 4.201470355966932 11.979677515165328 0 0 0
305 1 11.035771763344089 5.566582423581845 10.601967451493659 0 0 0
280 1 14.958746981747314 4.041094063765017 12.241822635659174 0 0 0
158 1 17.661927625986102 3.9497042495992303 9.508015589756287 0 0 0
313 1 16.47367343425105 5.518911592640801 10.802244852720182 0 0 0
288 1 20.543940845926098 4.044029771801173 12.148374173433579 0 0 0
292 1 2.591798266103067 7.974754839467893 11.126906682450603 0 0 0
293 1 1.4193015379451264 6.67213453840099 12.479969962296288 0 0 0
167 1 4.129418113140281 6.746364593780801 9.4462415572177 0 0 0
300 1 8.0597355042173 8.441589090427158 10.877702220726365 0 0 0
301 2 6.876972192700345 6.795270227925517 12.286816870658411 0 0 0
175 1 9.394014499627218 7.086746478143235 9.439223679497546 0 0 0
309 1 12.255166794114187 6.855362778795589 12.312748818827048 0 0 0
183 1 15.057121312897879 6.748975741163201 9.522409969928015 0 0 0
308 1 13.627091874359339 8.17170772150358 10.761554526220824 0 0 0
317 1 17.733773276859097 7.009121501679224 12.299940007720684 0 0 0
191 1 20.482458769414855 6.656416806434787 9.507212428096441 0 0 0
316 1 19.202553743868343 8.126089453857219 10.762220024040642 0 0 0
166 1 1.3130497970851382 9.485162041177603 9.592281130693403 0 0 0
321 1 0.06154747066683313 10.711063097145765 11.076923035845377 0 0 0
325 1 1.3306744865354505 12.099756921676413 12.54720703302583 0 0 0
199 1 3.989772819753562 12.138888595718447 9.506330363310955 0 0 0
296 1 4.141017200366206 9.391434865407838 12.27673157639099 0 0 0
329 1 5.411904430462711 10.927586862713865 10.970993997125742 0 0 0
174 1 6.591151710443159 9.61140881674979 9.501335794273318 0 0 0
333 1 6.760978533864927 12.276109481547985 12.42324375946482 0 0 0
182 1 12.235506284095225 9.644431352500128 9.498816854312915 0 0 0
207 1 9.515083402764299 12.213994310418474 9.64294567847229 0 0 0
304 1 9.655702317255704 9.616279650020651 12.19724060658752 0 0 0
337 1 11.009371408647844 11.013566711602227 10.722256348673222 0 0 0
341 1 12.458442886082562 12.128106628824309 12.180058407947724 0 0 0
215 1 14.88568046527662 12.153528786052124 9.5589514175541 0 0 0
312 1 15.089696964282997 9.331681855889295 12.323427833083658 0 0 0
190 1 17.70899281440852 9.360460647249447 9.568164042995745 0 0 0
345 2 16.39770159622196 10.845985621394057 10.840215320384859 0 0 0
349 1 17.53911159688725 12.358112431224646 12.254960649105902 0 0 0
223 1 20.502778763525686 12.25825931703504 9.688949333894449 0 0 0
320 1 20.409536094099717 9.421067177263076 12.411047132446726 0 0 0
198 1 1.6206417282694865 14.922726718659261 9.711360995168342 0 0 0
324 1 2.778275628620729 13.368153419630818 11.119224167641814 0 0 0
328 1 4.217869012990929 14.867216122463534 12.343702892120023 0 0 0
206 1 6.928427885899413 14.992740042279886 9.449192403267396 0 0 0
332 1 8.067952090564432 13.607177037727379 11.122636294120017 0 0 0
214 1 12.170184992123492 15.18661278746048 9.351835879232643 0 0 0
336 1 9.519258352542117 14.867188636319897 12.439422104589969 0 0 0
340 2 13.495757494581941 13.669227560735736 10.739042479580565 0 0 0
344 1 14.862950789522278 15.023292803100386 12.06404375097013 0 0 0
222 1 17.632101684789646 15.10240662454641 9.680274045930986 0 0 0
348 1 19.010214268042606 13.581428886596504 10.945618236365108 0 0 0
352 1 20.388966097979782 14.866732108290515 12.385444606766459 0 0 0
353 1 21.750048151310374 16.33049191697893 10.934599366608069 -1 0 0
357 1 1.1956191256410609 17.724828091387383 12.315779542950501 0 0 0
231 1 3.9674323938563094 17.56326623337689 9.422005920478973 0 0 0
361 2 5.4045235406195715 16.168460220304567 10.765513845510277 0 0 0
365 1 6.622404330467566 17.59274173055911 12.313401963501416 0 0 0
239 1 9.620244583149352 17.84303486527787 9.66924958142949 0 0 0
369 1 10.835417431561606 16.341309402208488 10.962149205053745 0 0 0
373 1 12.191943212041231 17.679016035672824 12.219055938690762 0 0 0
247 1 14.939042904027234 17.818923433621837 9.450618917676142 0 0 0
377 1 16.297600809040915 16.413928540857597 10.802521748840189 0 0 0
381 1 17.754348006079056 17.77024521113844 12.255774311854761 0 0 0
255 1 20.61731903407438 17.641205587841558 9.454382236362738 0 0 0
230 1 1.2298894676504766 20.493282138361153 9.650537488920058 0 0 0
356 1 2.549507580503114 18.981958414047988 10.937036750073851 0 0 0
360 1 3.9424778077665192 20.46293942907224 12.083218749971925 0 0 0
238 1 6.73347379886401 20.493662659044524 9.582182243803476 0 0 0
364 1 8.096390201120007 19.074774871847517 10.96691374440224 0 0 0
246 1 12.364423265194498 20.545552724329873 9.417183379151263 0 0 0
368 1 9.610937179910227 20.32311291015277 12.424408738914515 0 0 0
372 1 13.49643536423822 19.016886066656053 10.767814042317035 0 0 0
376 1 14.930303979773146 20.22162597983652 12.115601619183812 0 0 0
254 1 17.42257594663594 20.463583675973535 9.446365783954507 0 0 0
380 1 19.188928015493424 19.30525512044042 10.801626056123306 0 0 0
384 1 20.445363628337102 20.59256770559713 12.342196566378671 0 0 0
258 1 0.06439378951606975 2.687107054914599 13.708165477042142 0 0 0
259 1 2.6875762057337766 0.0859610574227139 13.543407062320302 0 0 0
263 1 4.146306842135139 1.3175800588159543 14.973039197352733 0 0 0
266 1 5.681650277211315 2.6136022192052146 13.78945983512216 0 0 0
267 1 8.147633950472068 21.713386722583923 13.715327220354713 0 -1 0
271 1 9.53245521214661 1.357938849591825 14.73301176370698 0 0 0
274 1 10.872851001861655 2.794035606191462 13.426899414903287 0 0 0
275 1 13.750230654604513 21.707844220440307 13.664082460968775 0 -1 0
279 1 14.824873142187052 1.2193207109307764 15.026783173427102 0 0 0
282 1 16.15590166612508 2.449483762774471 13.521729142771102 0 0 0
283 1 19.026986464964434 21.66330249958438 13.681109857425781 0 -1 0
287 1 20.464824302592646 1.2866536332962126 14.955111577658352 0 0 0
262 1 1.4228500149375214 4.1235690655461035 15.141045990877197 0 0 0
291 1 2.943116882177987 5.406445367128198 13.6553324532062 0 0 0
270 1 7.015492057317708 4.201137114360333 14.876476062727287 0 0 0
299 1 8.32189384868232 5.493760308170424 13.477630696858913 0 0 0
278 1 12.106787234073023 4.144739132942107 14.954613319779263 0 0 0
307 1 13.417254083028709 5.467601767552162 13.725746778373558 0 0 0
286 1 17.670510267143325 3.9992215249842977 14.960219011234633 0 0 0
315 1 19.122310451876785 5.399003176442291 13.509723685784788 0 0 0
290 1 0.049976273002995016 8.003695009839689 13.823324647026112 0 0 0
295 1 4.053999574653734 6.7720860990018945 15.06146482877082 0 0 0
298 1 5.514356860356055 8.078965928769566 13.737417685103482 0 0 0
303 1 9.641684713307233 7.076410878732277 14.820919221838077 0 0 0
306 1 11.096747344195443 8.326519157483865 13.593292632147142 0 0 0
311 1 14.85090890261954 6.765158947002966 15.153887756798184 0 0 0
314 2 16.240107552761483 8.125436854647145 13.779616684211092 0 0 0
319 1 20.39121787441866 6.772553982467416 15.003387894930391 0 0 0
294 1 1.4351717400423545 9.462399611953101 15.182527713391506 0 0 0
323 1 2.899047794752101 10.757728636862646 13.802798603369247 0 0 0
327 1 4.141206353800875 12.456803115026176 15.220433566174938 0 0 0
302 1 6.967017130227711 9.41599716103432 14.802942128673779 0 0 0
331 1 8.322222916997273 10.944697072697199 13.543461703569045 0 0 0
310 1 12.413669678978444 9.719676324848226 15.156458034772525 0 0 0
335 1 9.668503742839812 12.232663045312536 15.060967932745422 0 0 0
339 1 13.803567891991506 10.964064315716689 13.625508063946196 0 0 0
343 1 15.075325275672412 12.51647404394565 15.0292889530242 0 0 0
318 1 17.540383414653927 9.51422046630373 14.921705296570655 0 0 0
347 1 19.02508469178583 10.939983394958409 13.65168353878536 0 0 0
351 1 20.505497364824283 12.187906841473412 15.076183573252214 0 0 0
322 2 21.73982103779241 13.599027034173313 13.802624070129363 -1 0 0
326 1 1.5698030051585883 14.85423951386552 15.021059758419785 0 0 0
330 1 5.497002921778817 13.583348467075712 13.862036047371816 0 0 0
334 1 6.81042739714643 14.894589806725628 15.184167473645324 0 0 0
338 1 11.1120372634149 13.641504843742384 13.60282692941283 0 0 0
342 1 12.28878702015784 15.103168373931334 15.062197377122036 0 0 0
346 1 16.21360862961988 13.81398043950856 13.402081672492626 0 0 0
350 1 17.521720339379026 15.029250375367194 14.76874878816251 0 0 0
355 1 2.600489488159974 16.319557876360577 13.508442134604845 0 0 0
359 1 4.188949614164561 17.59542517208873 14.951528785219459 0 0 0
363 1 8.066589944001718 16.348305939654356 13.830979865435332 0 0 0
367 1 9.425333898200037 17.827078401316278 14.82284688539161 0 0 0
371 1 13.571291250489939 16.423177716741392 13.434392925959404 0 0 0
375 1 14.878639452168784 17.633787056911927 15.026296989879114 0 0 0
379 1 19.001058564600253 16.2226531962742 13.69398051612473 0 0 0
383 1 20.40537338150142 17.437450069044285 14.973087879329293 0 0 0
354 1 21.648193576958274 19.049020161293626 13.837610925638238 -1 0 0
358 1 1.3134373077045287 20.4241799054551 15.01325387562333 0 0 0
362 1 5.283646127013041 18.985924592705317 13.438033952502174 0 0 0
366 1 6.686051030076006 20.318699437060282 14.852575316924732 0 0 0
370 1 11.020745918558646 19.0391755195827 13.680951995346033 0 0 0
374 1 12.1331066197917 20.42119800281408 15.086544159201887 0 0 0
378 1 16.224669258224484 19.040478116715935 13.66372530390814 0 0 0
382 1 17.641509716748132 20.26313923911571 14.93756264942732 0 0 0
385 1 21.63279143719089 21.71099739019217 16.558140020835285 -1 -1 0
388 1 2.724785464389467 2.517893177435114 16.40367719395716 0 0 0
389 1 1.4624855389295863 1.0982901206683093 17.752456841575064 0 0 0
393 1 5.518256897251673 21.69459183700077 16.177669190036223 0 -1 0
396 1 8.21319503941345 2.76052930581759 16.137039126877575 0 0 0
397 1 6.920206514424146 1.2783396553877453 17.420841163043 0 0 0
401 1 10.827881054806685 0.016476519732277574 16.431244685424506 0 0 0
405 1 12.170203674580872 1.266308938572636 17.78603960736419 0 0 0
404 1 13.474885658101488 2.772920101021131 16.23371993478364 0 0 0
409 1 16.200351268747607 21.544427986611673 16.246633945323303 0 -1 0
413 1 17.77872461851371 1.030988936041655 17.594092774052243 0 0 0
412 1 18.975537078968365 2.52937692587666 16.31763462189932 0 0 0
417 1 21.667796133881073 5.200709121057552 16.501564910683527 -1 0 0
392 1 4.092225608967427 4.051271117981661 17.677465542698506 0 0 0
425 1 5.503695121899887 5.399789543234318 16.32899777717301 0 0 0
400 2 9.457792695463294 4.221927231980256 17.627513209440227 0 0 0
433 1 10.916303663277795 5.462842052776625 16.2575762447883 0 0 0
408 1 14.790631418270053 3.9397316647545555 17.955357424339308 0 0 0
441 1 16.255022682844874 5.345624626904025 16.463666041929002 0 0 0
416 1 20.21250424505417 3.9626978040914222 17.769862666917287 0 0 0
420 2 2.7952847228848885 8.059152049866391 16.364715493825052 0 0 0
421 1 1.1819297638834352 6.708073064155312 17.657046575235267 0 0 0
428 1 8.088807215728142 8.28400917709566 16.38462902425964 0 0 0
429 1 6.874737410905772 6.915156133603639 17.498245865625382 0 0 0
437 1 12.205344627359047 6.844231728389263 17.5817693473607 0 0 0
436 1 13.635581904647301 8.309428501064666 16.450452699797 0 0 0
445 1 17.547669726385937 7.0408954488540845 17.808289136340925 0 0 0
444 1 18.96418597420879 8.311976818024688 16.33088455175367 0 0 0
449 1 0.12648822782607416 10.782449601254257 16.44991723210782 0 0 0
453 1 1.188964509826308 12.227911316936712 17.87617977599869 0 0 0
424 1 4.0844188286134635 9.622881104338896 17.561682645700568 0 0 0
457 1 5.504086777042897 10.870973582385698 16.247408604143498 0 0 0
461 1 6.852870177649333 12.365796318998463 17.67110490808785 0 0 0
432 1 9.356085811569562 9.586227640123399 17.822634629368967 0 0 0
465 1 10.775587966633237 10.89734521636746 16.586339835920022 0 0 0
469 1 12.245955243795168 12.378636646952033 17.84627363613061 0 0 0
440 1 15.016670418384333 9.489725958906897 17.67810113362802 0 0 0
473 1 16.41013186702367 11.049393474480656 16.392996491981517 0 0 0
477 1 17.91729120327374 12.43416319529116 17.71485830137267 0 0 0
448 1 20.48150818055749 9.466949764522385 17.776294672917334 0 0 0
452 1 2.6976743352049106 13.664617152252973 16.72182568522456 0 0 0
456 1 4.228518702457959 15.01689121162754 17.93268672618193 0 0 0
460 1 8.323964069183356 13.526867454346409 16.27044386065239 0 0 0
464 1 9.542930058713797 15.195785692378621 17.661826009262622 0 0 0
468 1 13.478173274371363 13.655278069449103 16.47295180106538 0 0 0
472 1 14.930568157022977 14.904169842974527 17.77211327513267 0 0 0
476 1 18.935547589413893 13.541796784067188 16.097618121477566 0 0 0
480 1 20.247963991919438 14.671895577693999 17.540689396955838 0 0 0
481 1 21.747912016195954 15.906086316008114 16.365870979372822 -1 0 0
485 1 1.2944581769107097 17.492177697292977 17.61446745531002 0 0 0
489 1 5.501883815186256 16.202230254000312 16.441944293347007 0 0 0
493 1 6.646179201347131 17.789383556476462 17.61347403836788 0 0 0
497 1 10.880229116672627 16.52881450976356 16.312784769801972 0 0 0
501 1 12.068413429415125 17.663079559201613 17.738529751129903 0 0 0
505 1 16.20377387868481 16.209217098057035 16.195854050708693 0 0 0
509 1 17.70267769132032 17.518138116320497 17.571205002400582 0 0 0
484 1 2.6437246640973107 18.81895072421619 16.206637170108767 0 0 0
488 1 4.087563570195566 20.292886280927934 17.518917399546297 0 0 0