LAMMPS data file via write_data, version 29 Aug 2024, timestep = 10000000, units = metal

512 atoms
2 atom types

0 21.78415134 xlo xhi
0 21.78415134 ylo yhi
0 21.78415134 zlo zhi

Masses

1 28.0855
2 12.011

Atoms # atomic

1 1 21.753689911622974 0.13753605728679477 21.656807207321602 -1 0 -1
2 1 21.59938270589136 2.8930657959479187 2.7865016111270706 -1 0 0
3 1 2.6025017624868148 0.2635888803299851 2.961563285932866 0 0 0
4 1 2.784395659827519 2.715861912291596 21.699215321819445 0 0 -1
5 1 1.276952720915 1.3331819673479066 1.3723910411130191 0 0 0
9 1 5.4696137343042555 21.725902698317345 0.2073110511860032 0 -1 0
10 1 5.35865922741662 2.662312766681764 2.7412664672263967 0 0 0
11 1 7.885024444343022 0.0641653576555806 2.7791980472040927 0 0 0
12 1 8.109711453120298 2.618254752679247 21.52476947408917 0 0 -1
13 1 6.686917846000141 1.456339399475928 1.2472755240975004 0 0 0
17 1 10.612247009551071 21.615205668724325 0.036511483003394116 0 -1 0
18 1 10.469035627936433 2.7511410509543306 2.4286992322030607 0 0 0
21 1 11.999884381292077 1.296869129073528 1.248237330406881 0 0 0
19 1 13.457195600590465 0.12402560424452011 2.687275374098083 0 0 0
20 1 13.548778198094034 2.572423875784881 21.702083522846703 0 0 -1
25 1 16.25052642551136 21.698910872838773 0.14153052744813976 0 -1 0
26 1 16.373954177748402 2.787237036161983 2.579774807296431 0 0 0
29 1 17.609805608157263 1.4792366381664683 1.1636318374630343 0 0 0
27 1 18.824801208431808 21.756496845640754 2.520647181006511 0 -1 0
28 1 19.140348185557837 2.9972912680433597 0.02326166604144464 0 0 0
33 1 0.19627540059484638 5.73387023780025 0.020788763938611884 0 0 0
35 1 2.8414348896245105 5.530555318069214 2.775012998945998 0 0 0
8 1 4.067446973496738 3.996523861662045 1.3234651964630961 0 0 0
41 1 5.4626865861933265 5.275805279372359 21.595157937970278 0 0 -1
43 1 7.9930247219604915 5.269174432172101 2.5211208410335786 0 0 0
16 1 9.305459914269246 4.022678582583092 0.9542694036680087 0 0 0
49 1 10.936611561223524 5.192696255080111 21.66039024211111 0 0 -1
24 1 14.805417063263018 3.879117520106616 1.2229813849041018 0 0 0
51 1 13.49563223702168 5.246707809730451 2.5624777422527085 0 0 0
57 1 16.25217217509765 5.433999609051851 0.1250223810778795 0 0 0
32 1 20.47302774368659 4.345689673040566 1.1128926203606948 0 0 0
59 1 19.24984420213233 5.495616580804559 2.7570875902647902 0 0 0
34 1 0.13585463384540328 8.248552044992131 2.951610121164342 0 0 0
36 1 2.8146992527449375 8.124826945064797 0.12432312257001735 0 0 0
37 1 1.390897401456916 6.926685105734774 1.5954003815571376 0 0 0
42 1 5.6702853114605 8.248515366787144 2.506379301488659 0 0 0
44 1 8.341831063568732 8.127738256174409 21.469627534161503 0 0 -1
45 1 6.974192297448832 6.76097027448556 0.9795128210319247 0 0 0
50 1 11.076564652986542 7.963521013006892 2.76052619522119 0 0 0
53 1 12.350611150213119 6.744268937952385 1.11853226721788 0 0 0
52 1 13.620103626688433 8.207396793714489 21.583199131700525 0 0 -1
58 1 16.456691516258918 8.3373447156894 2.646140326276344 0 0 0
61 1 17.7580753719532 6.808147035125309 1.4847389280283865 0 0 0
60 1 19.08847231869695 8.111807094208713 0.1879142403632184 0 0 0
65 1 21.77493985476468 10.720555065479132 21.73673292559751 -1 0 -1
67 1 2.8682926529750006 10.891685290194904 2.6253273543345865 0 0 0
69 1 1.4323094552462454 12.140826317406807 1.195293636223698 0 0 0
40 1 4.115750014256435 9.433989909049197 1.3255096769723416 0 0 0
73 1 5.513834673976914 10.65811577723033 0.007986877149910726 0 0 0
75 1 8.24105329543008 10.84121055833369 2.5496572488137654 0 0 0
77 1 6.528159712705276 12.013490157283927 1.3830489467123859 0 0 0
48 1 9.47811211564553 9.185112447424153 1.4028433133087284 0 0 0
81 1 10.688476190000475 10.688753123085075 0.057372031061792936 0 0 0
85 1 11.95893590329084 12.163851282483597 1.3423138080510595 0 0 0
56 1 15.132045607214994 9.531258294742532 1.13590246647896 0 0 0
83 1 13.547674070772262 10.730903668296936 2.819139900252174 0 0 0
89 1 16.54598186030688 10.847562584594812 21.593712350180315 0 0 -1
93 1 17.68942824211789 12.197931854165475 1.2679481063181466 0 0 0
64 1 20.584512556117236 9.504949149555708 1.4559808064879776 0 0 0
91 1 19.02079664105508 10.848637396013055 2.730008358805893 0 0 0
66 1 0.04334407269303864 13.333559892822327 2.7641946348433613 0 0 0
68 1 3.0262636404136174 13.584905858523598 21.720175716477236 0 0 -1
72 1 4.138557371014715 14.937965663988882 1.5325226327926973 0 0 0
74 1 5.579410785265037 13.563806355416675 2.827049740009038 0 0 0
76 1 8.058718451889654 13.330316782989636 21.76811773731307 0 0 -1
80 1 9.637197334128954 14.693346397803051 1.423076809267868 0 0 0
82 1 10.798323080516703 13.463004016710315 2.975628359302824 0 0 0
84 1 13.745251454472475 13.446705609476707 0.09389544280542075 0 0 0
88 1 15.162737552678449 14.95876824832284 1.3805207789953498 0 0 0
90 1 16.361885994370645 13.396948793260961 2.604909955232377 0 0 0
92 1 18.916260929101945 13.841394410679241 0.06325756779593114 0 0 0
96 1 20.502853680333747 14.90278940698234 1.5845726193925196 0 0 0
97 1 0.20966084358603054 16.087525778567283 21.71546225302547 0 0 -1
99 1 2.590526808538616 16.497459234025364 2.479754630195023 0 0 0
101 1 1.219596095359683 17.964331868828875 1.1267369149274145 0 0 0
105 1 5.350699318651921 16.34007077728567 21.725042350533876 0 0 -1
107 1 8.22824674204536 16.354226764862872 2.6382429645526853 0 0 0
109 1 6.902163306420277 17.565235630170132 1.2275383916589215 0 0 0
113 1 10.933787258746783 16.146247339156602 21.78398220830829 0 0 -1
117 1 12.007187747796742 17.582360021742925 1.4289633952348533 0 0 0
115 1 13.691432302163102 16.231074425239495 2.728627788067827 0 0 0
121 1 16.15471663642168 16.421890250334986 21.668367331196492 0 0 -1
125 1 17.652757592419288 17.660004321320024 1.2620958295825364 0 0 0
123 1 18.87954616143962 16.490600727522825 2.709574854022349 0 0 0
98 1 21.771984051165262 19.428736876093925 2.626347437432057 -1 0 0
100 1 2.559297742637698 19.22183325392165 21.69969818749265 0 0 -1
104 1 4.020553663869791 20.560587303679995 1.520934295474198 0 0 0
106 1 5.478851779666675 18.861074847434598 2.7238431417519475 0 0 0
108 1 8.173651789088414 19.031314128121966 0.10271951461080954 0 0 0
112 1 9.25813722987029 20.40298807659177 1.5652594322147377 0 0 0
114 1 10.823690690517704 18.977019212142807 2.824688630379517 0 0 0
116 1 13.414937325910609 19.115149299550808 0.23975127919529057 0 0 0
120 1 14.914183920277177 20.533725300685553 1.5100551178295958 0 0 0
122 1 16.498484300792597 19.15997104824738 2.5822544416140483 0 0 0
124 1 19.17329678075913 18.977060753808207 21.67951948211814 0 0 -1
128 1 20.446408435025795 20.526087416785014 1.2211753486398522 0 0 0
129 1 0.02930023039839669 0.1179310139367242 5.386810830590609 0 0 0
132 1 2.6850123890494864 2.7117371236103773 5.564731815919875 0 0 0
7 1 4.030534623462231 1.462060718303027 4.283678289117033 0 0 0
137 1 5.261235860671535 21.780623393106133 5.44547486372403 0 -1 0
140 1 8.02976695513634 2.773961613136298 5.522180248564018 0 0 0
15 1 9.380572476607094 1.4358244225651307 4.016893207485654 0 0 0
145 1 10.633981882915478 0.09177242386519423 5.266773897782201 0 0 0
23 1 14.967352677437761 1.404654466592719 3.9478356651485544 0 0 0
148 1 13.539623141398307 2.761066420947264 5.2421355651297645 0 0 0
153 1 16.337556947819007 21.62113841556022 5.191517730334242 0 -1 0
31 1 20.276731452257494 1.4266939476520826 3.912591294347321 0 0 0
156 1 19.05211838920684 2.7640457026536494 5.440860249632218 0 0 0
6 1 1.475135870397873 4.011597213233714 4.078811500210559 0 0 0
161 1 21.736712082193044 5.402333920631324 5.465064572870796 -1 0 0
169 1 5.442362080138707 5.610745776360986 5.574048105740858 0 0 0
14 1 6.712455779853868 4.114790274753709 4.170871895266082 0 0 0
22 1 11.97289789524573 4.0479642156963855 3.879931580129198 0 0 0
177 1 10.71615637960837 5.473877015354207 5.371409651666829 0 0 0
30 1 17.70487551031478 4.2215749535844385 4.1150214334564446 0 0 0
185 1 16.426103873855915 5.691898049496503 5.545404055387732 0 0 0
164 1 2.910251429731782 8.12038021266688 5.398400165613769 0 0 0
39 1 4.3711245059150325 6.796632909900663 3.873454990632605 0 0 0
172 1 8.04778717591168 8.234874471467084 5.397115320861339 0 0 0
47 1 9.226053229029512 6.80571703794112 3.875488862156393 0 0 0
55 1 14.972722900969012 6.632073496873431 3.93620894487905 0 0 0
180 1 13.698889713957644 8.09405909327108 5.211106504900004 0 0 0
63 1 20.568875954413333 6.7530173974466265 4.105584524669397 0 0 0
188 1 19.293056044754298 8.109227496552522 5.5227558489917845 0 0 0
38 1 1.5615140518891721 9.588159767923724 4.160732249077756 0 0 0
193 1 0.1559815557536541 10.820766281983659 5.443739356876891 0 0 0
71 1 4.311637008212385 12.095953748376393 4.235452530782643 0 0 0
201 1 5.599499482118338 10.855574647051055 5.630673112835348 0 0 0
46 1 6.8421217092532896 9.704290151184638 4.063460443870521 0 0 0
54 1 12.203570402894334 9.362908250627141 4.22242891210133 0 0 0
79 1 9.690336910765689 11.918026958098846 4.1053634866255875 0 0 0
209 1 10.893111362815459 10.899541127262587 5.715341037800214 0 0 0
87 1 15.204292077873 12.147790974786295 4.019052201886588 0 0 0
62 1 17.924460155277206 9.354909347599142 4.096717630656622 0 0 0
217 1 16.38929638583937 10.593149110959802 5.321453757280118 0 0 0
95 1 20.380873068716287 12.09190542203182 4.191290125445744 0 0 0
70 1 1.5616537426194266 14.95736786933045 3.9293730624215755 0 0 0
196 1 2.8312376819787968 13.509185435489144 5.369702456403432 0 0 0
78 1 6.963474043394465 14.77370668090426 4.13823076419877 0 0 0
204 1 8.319512930625473 13.437209850426264 5.448123893619544 0 0 0
86 1 12.491635196545936 14.771574273667348 4.0860907528631865 0 0 0
212 1 13.633643850552907 13.5097984968381 5.556568737605716 0 0 0
94 1 17.39169561509842 14.83264122358873 4.166718914258726 0 0 0
220 1 19.0017479576758 13.625103832715808 5.5422559145801635 0 0 0
225 1 0.1372709098845634 16.34498591410254 5.152798547587993 0 0 0
103 1 4.001630078412294 17.543618103973802 4.041695359681199 0 0 0
233 1 5.5816338134014005 16.229437709757722 5.2850552918028 0 0 0
111 1 9.533775277799911 17.69530826494576 4.1946333920017755 0 0 0
241 1 10.914013414116035 16.279604568998867 5.451873055143246 0 0 0
119 1 15.159346664925685 17.655805482695264 3.8737783499926652 0 0 0
249 1 16.489985887127403 16.593338463170276 5.298182252366707 0 0 0
127 1 20.49088209134245 17.92004313031529 3.883587214953856 0 0 0
102 1 1.3570334305473446 20.47502661021511 4.162210408731327 0 0 0
228 1 2.713281454649001 19.164211164679102 5.4688079727391266 0 0 0
110 1 6.842828110982635 20.36876038768299 4.19173911348462 0 0 0
236 1 8.156040425351382 18.986325134141353 5.482141608966435 0 0 0
118 1 12.248247116949718 20.391550857216306 4.056644430017779 0 0 0
244 1 13.677233395492724 19.085337113618138 5.426721597669996 0 0 0
126 1 17.856049573855323 20.335088236730034 3.9248240980811846 0 0 0
252 1 19.263138008207292 19.182874229592187 5.451115896410506 0 0 0
130 1 21.709915840903935 2.7630072101083045 8.225791335153959 -1 0 0
131 1 2.5244662406178318 21.743537640632937 8.128210772487641 0 -1 0
133 1 1.2958538201573655 1.434553898961947 6.830899403578121 0 0 0
138 1 5.2982935643824405 2.6835983055756354 8.305407570337204 0 0 0
139 1 8.047479716142417 21.736376205605175 8.176977344352071 0 -1 0
141 1 6.6946484854037855 1.3241095778703833 6.899032392104273 0 0 0
146 1 10.660346594809894 2.7342023247972325 7.858464628148391 0 0 0
149 1 12.222394639291192 1.5656621788262888 6.632061544766073 0 0 0
147 1 13.504818873747018 0.027387086514926873 8.075712842495523 0 0 0
154 1 16.34941331213271 2.8185809993242503 8.235534029589756 0 0 0
157 1 17.53016719555226 1.389440230230691 6.679770785191506 0 0 0
155 1 18.86383746307692 0.15123226788143598 8.215076278717959 0 0 0
163 2 2.805990524645478 5.3126492190233785 8.310025209042157 0 0 0
136 1 3.9305003759603827 4.086437277232343 6.916120624303338 0 0 0
171 1 8.226624205398096 5.568792505600452 8.191097488995622 0 0 0
144 1 9.367903269846867 4.0852647219997875 6.672110933456344 0 0 0
152 1 15.050504135251073 4.028631797659254 6.854951721389774 0 0 0
179 1 13.518251346271983 5.423217864777971 8.161113336347515 0 0 0
160 1 20.2351794215686 4.126866480045386 6.9045012246148545 0 0 0
187 1 19.22066697147445 5.673447810448016 8.1797749542784 0 0 0
162 1 0.21786304578824525 8.059212539100985 7.97110123488857 0 0 0
165 1 1.5493171473491227 6.741224462174871 6.765724531188369 0 0 0
170 1 5.553005962056212 8.31301617576934 8.246394158835528 0 0 0
173 1 6.810327401580766 6.914287969781656 6.97777790442783 0 0 0
178 1 10.878737748732263 8.211741121762206 7.938354574370227 0 0 0
181 1 12.254241893638598 7.050084013652887 6.59681895397148 0 0 0
186 1 16.49403682413688 8.24318797871446 8.341021354591035 0 0 0
189 1 17.811018223511706 6.986965377849654 6.866784023993423 0 0 0
195 1 2.763693987477128 10.914123930014197 8.15991131828928 0 0 0
197 1 1.3756523156789044 12.266418617934447 6.839227140079055 0 0 0
168 1 4.201696335585815 9.501171480083132 6.969679793764851 0 0 0
203 1 8.187962148222061 10.902675517439102 8.361804406474283 0 0 0
205 1 6.9963995212769365 12.482159254281939 7.1880804049530775 0 0 0
176 1 9.253226993880546 9.466581648610026 6.787376910360712 0 0 0
213 1 12.037648964408016 12.459990116354907 6.960658922399697 0 0 0
184 1 15.065737705748246 9.421808378476054 6.781548025758772 0 0 0
211 1 13.874859638400485 11.199147284456178 7.944922290241846 0 0 0
221 1 17.480773631142057 12.17956524321416 6.733158369366339 0 0 0
192 1 20.604593828942313 9.556776367187156 6.885344189596351 0 0 0
219 1 19.07595884633806 10.870180111967992 8.052880460435864 0 0 0
194 1 21.719665721952595 13.65202244157937 8.043994146281303 -1 0 0
200 1 4.242262552719101 14.938549013729654 6.666048857663435 0 0 0
202 1 5.404786200580329 13.658989323283524 8.214027123794594 0 0 0
208 1 9.477537637427119 15.050020335494205 6.784218301488049 0 0 0
210 1 10.938204296552536 14.102417349624313 8.109878593377438 0 0 0
216 1 14.994526986992812 15.035639142305635 6.810169132902724 0 0 0
218 1 16.46824613504328 13.673492077501294 8.091162044029076 0 0 0
224 1 20.32809907795187 15.218508767078884 6.776392529769651 0 0 0
227 1 2.846173929921113 16.245852239604393 8.000961095864222 0 0 0
229 1 1.4791079745739673 17.562472744819463 6.6959927662971745 0 0 0
235 1 8.27430444364505 16.287676507495288 8.23190672703531 0 0 0
237 1 6.768519806024046 17.61126337012405 6.789821984375737 0 0 0
245 1 12.263648881022414 17.665784996472073 6.732793596145786 0 0 0
243 1 13.78823833868099 16.376095475312543 8.251841379134257 0 0 0
253 1 17.939103339362923 17.896833262236886 6.830540749387387 0 0 0
251 1 19.153287517136242 16.439126555011388 8.316273860284493 0 0 0
226 1 0.13687412409508565 18.971117957081383 8.220526880660532 0 0 0
232 1 4.086481112788293 20.39950668777632 6.769487109315576 0 0 0
234 1 5.539598992285306 18.984136918442378 8.117163522798442 0 0 0
240 1 9.311236315677322 20.433550604080622 6.777652573561543 0 0 0
242 1 10.85663575196774 18.910942985177257 8.066742812828556 0 0 0
248 1 14.9675203405838 20.39928663994509 6.674782716053675 0 0 0
250 1 16.30499382958337 19.120939208176136 8.21784577712966 0 0 0
256 1 20.495455099289856 20.646670527725114 7.059681255625656 0 0 0
257 2 0.015718418909463985 21.760223303938403 10.972720581782617 0 -1 0
260 1 2.6890281693296947 2.738657899947552 11.18387849722656 0 0 0
261 1 1.235951712016337 1.4487153285862415 12.268288677262898 0 0 0
135 1 4.053742044447217 1.2866163150331833 9.637863056749707 0 0 0
265 1 5.445689628232969 0.018126658168168663 11.014323838348743 0 0 0
268 1 8.167479625897318 2.789039161285246 10.76150252005054 0 0 0
269 1 6.826750499910722 1.4564277945789723 12.255698089967384 0 0 0
143 1 9.632711476829218 1.3098177718648398 9.379705767509055 0 0 0
273 2 10.698886150372763 21.574264446431556 10.840155963638846 0 -1 0
277 1 12.1240860505083 1.211144562981047 12.11567203522104 0 0 0
151 1 14.865375860082018 1.3688428407220883 9.669671555872096 0 0 0
276 1 13.505381570870142 2.694178998766127 10.853944003432034 0 0 0
281 1 16.18137099782954 21.632010097759846 11.022458302593257 0 -1 0
285 1 17.532682669676333 1.4144160550862006 12.26518075422922 0 0 0
159 2 20.50133232865085 1.2596731810021835 9.52444858680725 0 0 0
284 1 19.199159185896615 2.6781060729832564 10.993944931421572 0 0 0
134 1 1.2649840669150805 3.98526207965314 9.610832983044906 0 0 0
289 1 0.12128557018867292 5.539640783869954 10.886038674755188 0 0 0
264 1 4.332842563503414 4.169331756319905 12.516898642877042 0 0 0
297 1 5.656038908349296 5.388853456396959 11.117002854657189 0 0 0
142 1 6.839307734662794 4.092454690662678 9.476777942099172 0 0 0
150 1 12.062047378472895 3.998680186712898 9.10835085962682 0 0 0
272 1 9.48976437735192 4.128528297042327 12.229394612551822 0 0 0
305 1 10.940010331646231 5.484207945770426 10.572394422438835 0 0 0
280 1 14.758655367520374 4.117921699589061 12.18728141693159 0 0 0
158 1 17.885274297717125 4.0202968461634105 9.52009922761513 0 0 0
313 1 16.256562618150806 5.244933239088785 10.861680447973962 0 0 0
288 1 20.40275805737745 4.253416292398608 12.229197833322644 0 0 0
292 1 2.677235887430977 8.208025551574071 10.909195183802625 0 0 0
293 1 1.4254709689866933 6.901665733476306 12.320651735555417 0 0 0
167 1 4.249071624509201 6.776807966055267 9.650358635373083 0 0 0
300 1 8.357843502940584 8.188241443603799 10.854352795092412 0 0 0
301 1 6.985371339096351 6.7947500963743765 12.264848009184453 0 0 0
175 1 9.429715447235615 7.03961711896776 9.283506209585818 0 0 0
309 1 12.079069415780626 6.764775689653129 12.065846612597028 0 0 0
183 1 14.936777514517447 6.708820643811909 9.672794325996511 0 0 0
308 1 13.401148555930515 8.30912516775543 10.608622424249111 0 0 0
317 1 17.34228049432067 6.766819886406215 12.512169257965047 0 0 0
191 1 20.678170945190345 7.026059314937241 9.433980035169206 0 0 0
316 1 18.970427697896685 8.115805612169941 10.999757137393383 0 0 0
166 1 1.10722790564813 9.424214418937419 9.419359379785119 0 0 0
321 1 21.638780879352684 10.994225377840928 10.818803867967203 -1 0 0
325 1 1.341238121712641 12.104147989240795 12.433832728764784 0 0 0
199 1 4.144903169788506 12.4241789673174 9.545576239328165 0 0 0
296 1 3.842100646896472 9.621926291605801 12.402683897637425 0 0 0
329 1 5.338651307132266 11.012918638105045 11.180858017558739 0 0 0
174 1 6.747959546299207 9.69286374968574 9.729591915628568 0 0 0
333 1 6.893862842117149 12.2674786435705 12.415058860516929 0 0 0
182 1 12.395556492547106 9.688645091091354 9.251296415514261 0 0 0
207 1 9.665833837123303 12.3455917084057 9.448799205176764 0 0 0
304 1 9.609771553748269 9.581476496891652 12.28412105311199 0 0 0
337 1 10.873256107020884 10.878932603918907 10.718099822116073 0 0 0
341 1 12.234070465789179 12.321848744348138 12.100428075007143 0 0 0
215 1 15.275963158379538 12.325046925130218 9.678016734552347 0 0 0
312 1 14.72399877981807 9.553816365367789 12.132773175698793 0 0 0
190 1 17.76803392685103 9.588026723145783 9.6042055480902 0 0 0
345 1 16.485177114592865 10.909421940062103 10.94976134880573 0 0 0
349 1 17.677912391896445 12.24264430670805 12.275659201571614 0 0 0
223 1 20.284381267348724 12.489051030432675 9.521341018218907 0 0 0
320 2 20.248822165334687 9.51844048053095 12.22822560474628 0 0 0
198 1 1.4702723593094025 14.933209287582903 9.693100361719102 0 0 0
324 1 2.5611714003429746 13.62325923005906 11.214790928171618 0 0 0
328 1 3.998121236552607 14.963047368832694 12.48475493602245 0 0 0
206 1 6.7974468825231895 15.008540064362107 9.629772686136805 0 0 0
332 1 8.107151608448316 13.584902404073617 11.046579109135532 0 0 0
214 1 12.273238206306262 15.225669539096279 9.63221155423421 0 0 0
336 1 9.638650579188017 14.991474215498442 12.10276455610781 0 0 0
340 1 13.887029658691052 13.680422192760727 10.808176636342147 0 0 0
344 1 15.156997048115477 14.77764280475502 12.572251756777423 0 0 0
222 1 17.860107927221307 15.113822564687739 9.587559496296521 0 0 0
348 1 19.0834190268853 13.77180884719125 11.120154041707549 0 0 0
352 1 20.649668001224672 14.874028304163994 12.512177518227793 0 0 0
353 1 0.13549723498277247 16.17705881820428 11.031280018184763 0 0 0
357 1 1.4496716668559626 17.569176765799213 12.381174939555207 0 0 0
231 1 4.0645285132371365 17.688274095860553 9.70999369677799 0 0 0
361 1 5.481605166208118 16.2531550790205 11.14776507653784 0 0 0
365 1 6.824429524531368 17.66306656253132 12.528836747192713 0 0 0
239 1 9.575456940691303 17.743683870179105 9.48839720952631 0 0 0
369 1 10.866398113898619 16.523020098585356 10.84066986139836 0 0 0
373 1 12.201088645639052 17.70455022727752 12.352794514983682 0 0 0
247 1 15.11293651490952 17.73736549593426 9.73342975557092 0 0 0
377 1 16.344972919854175 16.30722664684303 10.98852885635 0 0 0
381 1 17.93738293714227 17.822824410546385 12.299719439292929 0 0 0
255 1 20.656483179316265 17.67663599485975 9.729046289937964 0 0 0
230 1 1.4770628641860188 20.26434620035974 9.614903742693187 0 0 0
356 1 2.7815180302626548 18.932451174502805 10.887192159283165 0 0 0
360 1 3.8243808927448844 20.466721590452146 12.1047996869381 0 0 0
238 1 6.722097218382669 20.16842290835517 9.558472478254874 0 0 0
364 1 7.962313662167162 18.76899277692521 10.900869053122257 0 0 0
246 1 12.214809440670209 20.298527173446207 9.307449562584665 0 0 0
368 1 9.366914792383945 20.212857808794393 12.135682442036037 0 0 0
372 1 13.480149393241184 19.178302512500863 10.88888229137982 0 0 0
376 1 14.957381673903226 20.2410417592894 12.224174635557421 0 0 0
254 1 17.72094464451813 20.485288694664185 9.40924884466304 0 0 0
380 1 18.979325282182877 19.217948188410162 10.760480067644435 0 0 0
384 1 20.293967208866466 20.471222665370973 12.25000128111834 0 0 0
258 1 21.631900367336698 2.614148876680635 13.579994527225995 -1 0 0
259 1 2.644961057350455 21.745676821483283 13.754412354447565 0 -1 0
263 1 4.0928984598804705 1.4216374155956253 15.005070996396492 0 0 0
266 1 5.58947558208085 2.7917352629898655 13.633745449886401 0 0 0
267 1 8.183689799209178 21.698453565141538 13.480350091612388 0 -1 0
271 1 9.502999129318543 1.4253971846295346 14.982311926332354 0 0 0
274 1 10.881217378842821 2.681269073690733 13.514652803153455 0 0 0
275 1 13.655174674578928 21.638865128266122 13.53386457934276 0 -1 0
279 1 14.794202228784071 1.1867979068158159 14.78069326014642 0 0 0
282 1 16.205247091465136 2.8119321164014828 13.6732255385643 0 0 0
283 1 19.06588903600791 0.21260206701204623 13.68778847397636 0 0 0
287 1 20.336516964111386 1.3509490558029098 15.141827555452917 0 0 0
262 1 1.183848700413349 4.05797572219325 14.876986813076627 0 0 0
291 1 2.626581641125767 5.445726140665674 13.66369567630952 0 0 0
270 1 6.963625810377821 4.076554846547644 14.900871388076599 0 0 0
299 1 8.328914189724868 5.423626432592892 13.561583492123981 0 0 0
278 1 12.170334508770656 4.108994835064649 15.033820632012496 0 0 0
307 1 13.571896433960628 5.541946798738204 13.491461187456254 0 0 0
286 1 17.511732924354693 4.451472395980732 14.908000656989953 0 0 0
315 1 19.080505883281486 5.590803347078179 13.643103663851937 0 0 0
290 1 21.76222337238791 8.274653046549615 13.556845412188233 -1 0 0
295 1 4.250195539408291 6.834855179311113 14.755308616082802 0 0 0
298 1 5.538495549770373 8.237744351754909 13.416086496903885 0 0 0
303 1 9.422323795785308 6.735624944591919 14.914345550839181 0 0 0
306 1 10.82629055883644 8.031821619066468 13.70312892784774 0 0 0
311 1 14.643257595699303 6.929855949903498 15.118221731267372 0 0 0
314 1 16.018861004115593 8.229532121128633 13.679525119993988 0 0 0
319 1 20.515610660794735 6.972393934090369 14.946591461950549 0 0 0
294 1 1.3265845131813834 9.528528526149755 15.164131088502945 0 0 0
323 1 2.6663146632260832 11.002251450314503 13.80044587019973 0 0 0
327 1 4.066102676550268 12.390509710288542 15.022823206933944 0 0 0
302 1 6.706343025606302 9.478148054968784 15.042352818759253 0 0 0
331 1 8.199363766650302 10.875285930729982 13.665748129682234 0 0 0
310 2 12.232374379298479 9.43416969358567 15.111095665771295 0 0 0
335 1 9.661134077810168 12.370409163677994 15.051878485076273 0 0 0
339 1 13.48255475917443 10.799856948874407 13.70688768560598 0 0 0
343 1 14.96757505391857 12.115548262707826 15.214612518748778 0 0 0
318 1 17.458160736934694 9.544138769576412 14.872328272432712 0 0 0
347 1 19.013424418988084 10.788255914154119 13.480476547636354 0 0 0
351 1 20.337128664695456 12.208920410302348 15.064478420936032 0 0 0
322 1 0.2161346685259602 13.502541616476988 13.749226453308674 0 0 0
326 1 1.302686962375799 15.056201236964762 15.22056040469463 0 0 0
330 1 5.590120642406282 13.616200986321346 13.719388824951304 0 0 0
334 1 7.037214388922589 14.908638497111058 14.981451754427676 0 0 0
338 1 11.026917981801414 13.673156645196348 13.427332851578498 0 0 0
342 1 12.47816025418378 14.912159748915577 15.090928487696571 0 0 0
346 1 16.35252184005818 13.376702154062158 13.829361765738096 0 0 0
350 2 17.876832570781744 15.007950780485864 15.07249862432006 0 0 0
355 1 2.830808963003225 16.54611047287556 13.774542612548853 0 0 0
359 1 4.147678099867469 17.601982291399416 15.156705827396484 0 0 0
363 1 8.368516308604736 16.32858213788611 13.589278717814713 0 0 0
367 1 9.631542631917094 17.448190848333336 15.088593862595017 0 0 0
371 1 13.665676331149983 16.498613698669967 13.69979775551162 0 0 0
375 1 15.249422456606407 17.691570343521207 15.071156482471313 0 0 0
379 1 19.20818060250793 16.3714129872931 13.732864709181285 0 0 0
383 1 20.50290215761229 17.870873181029566 15.125617092085891 0 0 0
354 1 21.750005431612458 19.125529441883923 13.65334750741139 -1 0 0
358 1 1.3288022483204542 20.372533125659704 14.939500801352832 0 0 0
362 1 5.0574851169303905 19.124002276425536 13.470677779157663 0 0 0
366 1 6.678441632636622 20.388788454245873 14.741881832053304 0 0 0
370 1 10.888989307199807 19.180531494102834 13.683465439395455 0 0 0
374 1 12.313535408970766 20.509469268397165 14.954522644951416 0 0 0
378 2 16.506551430049306 19.19073316581221 13.643671895747898 0 0 0
382 1 17.718973002060874 20.531883690707794 15.138006217624254 0 0 0
385 1 21.781413795343028 0.17621811941631194 16.3218767600578 -1 0 0
388 1 2.777326138780067 2.8020490733477117 16.388500823680875 0 0 0
389 1 1.5712179776786854 1.3835217049342325 17.75956433128331 0 0 0
393 1 5.55554455384602 0.09861941785005107 16.063204703218307 0 0 0
396 2 8.20382244397363 2.7195405238745485 16.294194008952847 0 0 0
397 1 6.807567019476834 1.3039150989287023 17.712361596626728 0 0 0
401 1 10.820253632889179 21.73800399469306 16.141876672522795 0 -1 0
405 1 12.085919864684245 1.2407503303479057 17.695176609622838 0 0 0
404 1 13.580842415224229 2.5601080240759386 16.285653553897163 0 0 0
409 1 16.143701020549035 0.06302789632796314 16.25671823455636 0 0 0
413 1 17.51353120465137 1.3821694809673308 17.648623757506993 0 0 0
412 1 18.919402344640293 2.7998042763237474 16.2679581661297 0 0 0
417 1 21.76960502780094 5.59815746615571 16.25121191048866 -1 0 0
392 1 4.17813424265404 4.095335241193691 17.85381448893678 0 0 0
425 1 5.343028385656014 5.322267248955491 16.124685291214945 0 0 0
400 1 9.562944210518408 3.902271075139945 17.63454989807441 0 0 0
433 1 10.770642364597109 5.514663208607776 16.35061340903856 0 0 0
408 1 14.864228907128753 4.154673378334664 17.737777889214758 0 0 0
441 1 16.046698625844126 5.686373124701536 16.431807688708854 0 0 0
416 1 20.276655415437165 4.183270813178564 17.617964156829903 0 0 0
420 1 2.743859707307186 8.054665372286488 16.567123711038747 0 0 0
421 1 1.195508984164448 6.777724382562615 17.82940553432007 0 0 0
428 1 8.279366122434409 8.235657362485446 16.326809285366792 0 0 0
429 1 6.7838242206602875 6.718198134868557 17.51306719754642 0 0 0
437 1 12.27261657289129 6.678909400708065 17.847322886988326 0 0 0
436 1 13.559506152226371 8.19124828930518 16.66575274725154 0 0 0
445 1 17.569829902409474 6.9782737782061455 17.48429205671059 0 0 0
444 1 18.93021836762553 8.273859535719069 16.137626839006973 0 0 0
449 1 21.45098315144718 10.735269634885558 16.402612815417097 -1 0 0
453 1 1.280132424535855 12.167523255894539 17.630250859819913 0 0 0
424 1 3.979440887230425 9.590639815210087 17.756039711282288 0 0 0
457 1 5.377010771667939 10.653367631836753 16.3383482093228 0 0 0
461 1 6.838901318808111 12.19405378376337 17.549710231459517 0 0 0
432 1 9.527015122551173 9.473680283924292 17.70045404341635 0 0 0
465 1 10.966667837082026 10.798183177636613 16.439617407941533 0 0 0
469 1 12.283063111960695 12.333044353189104 17.795417255968967 0 0 0
440 1 14.985292639595412 9.561663387375035 17.907426785742494 0 0 0
473 1 16.461682759795007 10.752112808091471 16.65549480077226 0 0 0
477 1 17.690089651000164 12.438331727453557 17.817526358258327 0 0 0
448 1 20.15526348070969 9.475076767946513 17.77494029944287 0 0 0
452 1 2.6987303132478933 13.64083786145597 16.531578863617618 0 0 0
456 1 4.130698296740071 15.118625987489503 17.70107823346819 0 0 0
460 1 8.162115319098637 13.542919839035054 16.309307079751576 0 0 0
464 1 9.611080896885435 14.962323718624626 17.74433413330817 0 0 0
468 1 13.686568968441879 13.56322912543371 16.567486961625733 0 0 0
472 1 14.866914205861875 15.134695195012311 17.821303715888895 0 0 0
476 1 19.11815907638944 13.667046594155345 16.43031249562492 0 0 0
480 1 20.591886865610494 14.71375847800748 17.64896965242765 0 0 0
481 1 21.756252934428872 16.451687822633975 16.66244123356774 -1 0 0
485 1 1.4718137245980645 17.574524179346966 17.896600688423764 0 0 0
489 1 5.670593461184877 16.303795266812426 16.404703540753705 0 0 0
493 1 6.909697270482989 17.652006311652556 17.812088773680593 0 0 0
497 1 11.148840532453246 16.257567511158683 16.261985354594724 0 0 0
501 1 12.389985172652905 17.90600999304198 17.596454214137268 0 0 0
505 1 16.348544760024033 16.098799071077142 16.41791236738672 0 0 0
509 1 17.59105501405791 17.62673354274713 17.816484583878136 0 0 0
484 1 2.917147401091299 19.086435793678167 16.450462576312514 0 0 0
488 1 4.342624991977774 20.53583544609782 17.669066369330537 0 0 0