LAMMPS data file via write_data, version 29 Aug 2024, timestep = 10000000, units = metal

512 atoms
2 atom types

0 21.75660358 xlo xhi
0 21.75660358 ylo yhi
0 21.75660358 zlo zhi

Masses

1 28.0855
2 12.011

Atoms # atomic

1 1 0.12493306013248096 21.535290125125897 21.64893719266413 0 -1 -1
2 1 0.07968531886404687 2.7034520704110125 2.7397980407713414 0 0 0
3 1 2.7255118354740975 0.016959266389165176 2.4502603205836295 0 0 0
4 1 2.7558578865170955 2.852935066122561 21.611947114144126 0 0 -1
5 1 1.3974140005870723 1.362563025146326 1.205376154749371 0 0 0
9 1 5.455914031076181 21.681842427292832 21.699611050665776 0 -1 -1
10 1 5.35741670509813 2.7280684789241914 2.668240665540286 0 0 0
11 1 8.233102270928871 0.08713598306973566 2.7618508206024255 0 0 0
12 1 8.070678831702491 2.5082546584792467 21.642490501891825 0 0 -1
13 1 6.908779421242195 1.166885925532375 1.3234157064567846 0 0 0
17 1 10.99669669570328 21.698943236812624 0.09228645002395552 0 -1 0
18 1 10.930734540879897 2.7073424243513884 2.695055793272421 0 0 0
21 1 12.405569164706241 1.2230794475142506 1.4593795629785289 0 0 0
19 1 13.674895198126936 0.08519380078935287 2.8804579221229387 0 0 0
20 1 13.660223657349228 2.7590958575235347 0.07891929534287588 0 0 0
25 1 16.40609726253346 0.08309245245152082 0.0313826245107721 0 0 0
26 1 16.24428785176911 2.8347268177021037 2.4973553972332785 0 0 0
29 1 17.81855987544798 1.367013517181756 1.428941014002936 0 0 0
27 1 19.106902717280928 21.73303828116046 2.7418650675923826 0 -1 0
28 1 19.05694953465169 2.7195596759675293 21.71421838197531 0 0 -1
33 1 21.75149485000979 5.518089746054566 21.754897580340003 -1 0 -1
35 1 2.7402507862048076 5.512891612793412 2.498736070638816 0 0 0
8 1 4.183975705316836 4.157067496126504 1.2294547075277273 0 0 0
41 1 5.508702570360475 5.462775244012181 21.587433662852124 0 0 -1
43 1 8.358810844294133 5.315584348612703 2.6969827170152136 0 0 0
16 1 9.516977000011217 3.9988757186805164 1.1741170586186278 0 0 0
49 1 10.886236568212777 5.525030383564619 0.08041073370409342 0 0 0
24 1 14.926779164431494 4.194766013928972 1.339078443883081 0 0 0
51 1 13.528832501543528 5.526552230717615 2.598737060018621 0 0 0
57 1 16.44104222534872 5.416955223362911 0.09834667647239934 0 0 0
32 1 20.474297352119514 4.028108236237184 1.3998119713942978 0 0 0
59 1 19.1273192208652 5.457808574286468 2.847297362715477 0 0 0
34 1 0.06990544457099944 8.235121833790625 2.6782295750728515 0 0 0
36 1 2.6604653388322537 8.302219929950052 0.016035681054585072 0 0 0
37 1 1.3463348225238327 6.900169960041513 1.2380748794371559 0 0 0
42 1 5.4774341095658166 8.054911159518909 2.722039270868979 0 0 0
44 1 8.116106701905764 8.171924418129246 0.13987657382854768 0 0 0
45 1 7.062538647629642 6.668001990947511 1.468392580529953 0 0 0
50 1 10.94955133909341 8.047387849847608 2.9209143396669597 0 0 0
53 1 12.076622518525411 6.931794712494456 1.4065691497854833 0 0 0
52 1 13.683431368027154 8.038419066909412 0.0842727164743373 0 0 0
58 1 16.36611594747959 8.225533438836301 2.5891689855168405 0 0 0
61 1 17.887145907966126 6.911512020226819 1.322659209799731 0 0 0
60 1 19.0170178578068 8.234767248119725 21.476699168029615 0 0 -1
65 2 0.026812604827087215 10.939582984761318 21.670463451613326 0 0 -1
67 1 2.7485917230617405 10.917772561801513 2.669943863278994 0 0 0
69 1 1.357580219899073 12.27177150992922 1.4036759101664156 0 0 0
40 1 4.074338123833672 9.437307577586488 1.3528284679382638 0 0 0
73 1 5.470257727457357 10.714033997505943 0.04329369083051353 0 0 0
75 1 8.201666441053742 10.717802767623946 2.920193441575082 0 0 0
77 1 6.905384571932977 12.154594543330916 1.2853656278710348 0 0 0
48 1 9.556464483153459 9.353732330888162 1.5174382428248092 0 0 0
81 1 10.810190662566308 10.685586831438615 0.08373212656988903 0 0 0
85 1 12.19915257959506 12.239003079745933 1.3370757736286432 0 0 0
56 1 14.859702288152782 9.40563693603014 1.3366604648033267 0 0 0
83 1 13.564661248353351 10.888912983516805 2.702608031498585 0 0 0
89 1 16.307966167610008 10.797906159245764 0.07957289227728934 0 0 0
93 1 17.77482137102002 12.04905860875033 1.4792695926507795 0 0 0
64 1 20.500345034794968 9.49902686744458 1.1944719783453142 0 0 0
91 1 19.2740393283351 10.63528029522391 2.7387747893278513 0 0 0
66 2 0.057433618619142375 13.522340450369427 2.908321799705826 0 0 0
68 1 2.5252471855204 13.684107211306275 0.017623515199712638 0 0 0
72 1 4.0171727153294166 15.023316615439128 1.4651964989517068 0 0 0
74 1 5.489978004478128 13.654015278166016 2.6168954983282995 0 0 0
76 1 8.100936600201958 13.331831058368657 21.518248718175577 0 0 -1
80 1 9.320041748219335 14.906401714445103 1.1786158908319495 0 0 0
82 1 10.705306938451796 13.510947547307795 2.704105179443482 0 0 0
84 1 13.641230699810722 13.467986958008604 21.695121507735646 0 0 -1
88 1 14.94117823128222 14.878821758256068 1.1859124413755733 0 0 0
90 1 16.308838123614844 13.583830627664609 2.6923378539151024 0 0 0
92 1 19.173172534273736 13.432183216553982 0.11073698072147013 0 0 0
96 1 20.39610013066669 14.979106126213852 1.5066131479267202 0 0 0
97 1 21.719490632866314 16.311525217153417 0.07203283168798175 -1 0 0
99 1 2.7043197752528405 16.3344943517458 2.9443098025800456 0 0 0
101 1 1.3944312204113034 17.640847494562998 1.4122394737157746 0 0 0
105 1 5.258530270957079 16.279008516801436 0.039259711222515814 0 0 0
107 1 8.015494479605808 16.31800998665496 2.775540754647128 0 0 0
109 1 6.61120334290259 17.620722988484008 1.4862979728840564 0 0 0
113 1 10.993250099753876 16.23053195554647 0.09289940692579324 0 0 0
117 1 12.38361854847806 17.720529892293403 1.4148838346051127 0 0 0
115 1 13.748224149345559 16.27938418601987 2.672083333229569 0 0 0
121 1 16.39992936973512 16.222476845189295 21.729743780017095 0 0 -1
125 1 17.49585343975469 17.713444312656364 1.4602378319974854 0 0 0
123 1 18.99812993228065 16.430202700577272 2.7739563909310365 0 0 0
98 1 0.008335699259387359 19.05409607572865 2.4883660451416048 0 0 0
100 1 2.7842618158535717 18.96722851861595 0.06007200585577678 0 0 0
104 1 4.124163834057904 20.344970801642667 1.216783260017397 0 0 0
106 1 5.405061267330918 19.057685432803282 2.7984797816643945 0 0 0
108 1 8.224944357680725 18.837813442391543 0.004908523599050285 0 0 0
112 1 9.39727657270347 20.46441237783 1.352835268352654 0 0 0
114 1 10.948253364604263 19.11799693286118 2.700152400996848 0 0 0
116 1 13.69495799040269 19.073811836122 0.008305915831273828 0 0 0
120 1 14.949537033300443 20.420656775819737 1.3781426559108152 0 0 0
122 1 16.33469126211275 19.003984751741903 2.799482670894161 0 0 0
124 1 18.900166659286203 18.925706696376015 21.654986512896436 0 0 -1
128 1 20.32713068476792 20.280983545998772 1.1899861588829925 0 0 0
129 1 0.0036590643516286095 21.675493518257312 5.293329260541765 0 -1 0
132 1 2.6121303775525906 2.762868084866603 5.203908381102225 0 0 0
7 1 4.046956781473702 1.2878442511700294 3.958006332789818 0 0 0
137 1 5.3302331621315675 0.09273958586088257 5.59892918096566 0 0 0
140 1 8.15703901250922 2.5962172637141774 5.292137311234344 0 0 0
15 1 9.587910682183875 1.3639180466990108 4.18673284147176 0 0 0
145 1 10.84023205349532 21.653405037380967 5.559364181394406 0 -1 0
23 1 15.018887198652171 1.524215785177122 4.021034082911848 0 0 0
148 1 13.560956595304697 2.66465955093656 5.363715049778928 0 0 0
153 1 16.24146014007713 0.23696291084688498 5.477110313586257 0 0 0
31 1 20.4080312879935 1.3965240690844594 4.13403475349125 0 0 0
156 1 19.183985402821293 2.7953709723023015 5.39770660729227 0 0 0
6 1 1.2712579246006497 4.219266188917914 4.012366348045633 0 0 0
161 1 0.030005472049889688 5.359495294780826 5.472554204882596 0 0 0
169 1 5.533733794797813 5.28886350849071 5.348500076010106 0 0 0
14 1 7.051628095405195 3.985223330890276 3.896958860041935 0 0 0
22 1 12.219717923612778 4.109818400850115 3.966755589293505 0 0 0
177 1 10.929368189881883 5.402453257231419 5.607956446858015 0 0 0
30 1 17.662238877942382 4.232570954007012 4.150893864304503 0 0 0
185 1 16.247205329666418 5.551093688104409 5.4478645687972005 0 0 0
164 1 2.819759929317422 8.203372218862114 5.451738119294601 0 0 0
39 1 4.136377916809019 6.73993051623375 3.969070965726974 0 0 0
172 1 8.228806264233786 8.138101051583732 5.477763884821567 0 0 0
47 1 9.599746647218767 6.741284696992231 4.127838670804182 0 0 0
55 1 14.939449412492744 6.891430234001675 3.9580160332799315 0 0 0
180 1 13.636658936306034 8.125995213137315 5.465575677414827 0 0 0
63 1 20.532643266858603 6.725777834967804 4.168359571492949 0 0 0
188 1 19.196205207804425 8.135876330439192 5.544945803933907 0 0 0
38 1 1.5344526848883449 9.616292568498668 4.0931474330406665 0 0 0
193 1 0.13728933053928186 10.933756954002938 5.491027149006252 0 0 0
71 1 3.915772804251416 12.275599643874422 4.071210422717537 0 0 0
201 1 5.300183749416912 10.987097155933853 5.377459043534173 0 0 0
46 1 6.6734929586197325 9.447872151043498 4.255525611860605 0 0 0
54 1 12.224500752293194 9.563254600974894 4.132423535472242 0 0 0
79 1 9.422169722135928 12.240391604302603 4.092201894065481 0 0 0
209 1 10.75327045123077 10.909906269652467 5.343073937687648 0 0 0
87 1 15.048906905186511 12.263374371472894 4.094894447297465 0 0 0
62 1 17.74059049956006 9.353737818923438 3.9932830313021515 0 0 0
217 2 16.26123365516349 10.828097246878187 5.288300946847544 0 0 0
95 1 20.343647189649076 12.169454533671829 4.121026736281798 0 0 0
70 1 1.3298107222684135 15.004000701064191 4.144564636917735 0 0 0
196 1 2.741508202750425 13.635796115283851 5.506557508791255 0 0 0
78 1 6.741644691669714 14.869235448699675 4.1303418880682115 0 0 0
204 1 8.03607920257956 13.525521953430676 5.436081198564251 0 0 0
86 1 12.35459061130594 14.865714272946471 4.037935847364445 0 0 0
212 1 13.643194070738158 13.450183282280902 5.430491822430694 0 0 0
94 1 17.668565873888934 14.964151982725697 3.9335024004466934 0 0 0
220 1 19.03463256244743 13.675038228225304 5.269809397954015 0 0 0
225 1 21.703695493533406 16.44056900936123 5.395547953317264 -1 0 0
103 1 3.9603719720727035 17.712007108506597 4.077586228124668 0 0 0
233 1 5.492865577297646 16.206151103112028 5.493038171607063 0 0 0
111 2 9.38342476509918 17.730089319035073 3.995895551379607 0 0 0
241 1 10.766778966445289 16.34641913546095 5.370397647049712 0 0 0
119 1 15.0124588601653 17.55894907088151 4.129278174207174 0 0 0
249 1 16.376169939700794 16.363561530741933 5.516234788337686 0 0 0
127 1 20.429953033791236 17.858191247194917 4.033365938730152 0 0 0
102 1 1.360760921799557 20.455035768498945 3.850306225669857 0 0 0
228 1 2.5131122918636515 19.116456019082754 5.415395400502333 0 0 0
110 1 6.668006922044042 20.594874474084992 3.997773743259902 0 0 0
236 1 8.023465239703908 19.116883892281507 5.299395581883707 0 0 0
118 1 12.248049950521539 20.39682529384135 4.158370073594261 0 0 0
244 1 13.724739095894126 19.132737659549214 5.402637116757936 0 0 0
126 1 17.623317858622592 20.461165591861274 3.9559893978318956 0 0 0
252 1 18.956913619260476 19.24384753040887 5.405933885532319 0 0 0
130 1 0.045279200704120164 2.755120301320012 8.084489485427099 0 0 0
131 1 2.6002849409437245 0.07568348552028974 8.172386772047805 0 0 0
133 1 1.3368329599731665 1.3646751183574426 6.661990026575201 0 0 0
138 1 5.320874602077852 2.782283354736408 8.193732940614183 0 0 0
139 1 8.142893068997685 21.713267453334012 8.186544447626627 0 -1 0
141 1 6.8130489976316335 1.4565988639423668 6.781656909181428 0 0 0
146 1 11.022184202896309 2.6783334801063003 8.218219741091268 0 0 0
149 1 12.29715001599936 1.3290808290990441 6.768963713699526 0 0 0
147 1 13.608179006238926 21.675073856375448 8.243465073464526 0 -1 0
154 1 16.375067941356413 2.821452570546894 8.153729369024122 0 0 0
157 2 17.85900777627851 1.5104960562327499 6.8003529543151435 0 0 0
155 1 19.05020203604385 21.699179704027852 8.202522070373734 0 -1 0
163 1 2.7427266808304878 5.581382047150391 7.892971154001343 0 0 0
136 1 4.11266244521105 3.955387798933457 6.580914532768992 0 0 0
171 1 8.102982408877134 5.33434443670455 8.182292135773771 0 0 0
144 1 9.606410633743852 3.9708200737531616 6.853179696849322 0 0 0
152 1 14.861745281698056 4.189246507207855 6.8923709179297115 0 0 0
179 1 13.513200495459994 5.663690939645373 8.351660757587519 0 0 0
160 1 20.46493425216697 4.088646836765317 6.776669355375029 0 0 0
187 1 19.2683234456949 5.425204323915148 8.173062631953396 0 0 0
162 1 0.13827749069723666 8.14175657456266 8.123894043216438 0 0 0
165 1 1.360284711890278 6.798316714523016 6.661131743914978 0 0 0
170 1 5.567200816241388 8.068299573703737 8.147120492496848 0 0 0
173 1 6.99536602109152 6.760247082596378 6.848130838495711 0 0 0
178 1 10.822733359585902 8.223979368325086 8.19987787025107 0 0 0
181 1 12.169697556480903 6.76219995661765 6.861110697269626 0 0 0
186 1 16.3412545103971 8.274869399533333 8.077808661986413 0 0 0
189 1 17.812604904109755 6.678211938639792 6.787740974664942 0 0 0
195 1 2.6884659119052396 10.891058919368668 8.18478269865088 0 0 0
197 1 1.313555124327541 12.404322927656192 6.869508982540129 0 0 0
168 1 4.054863343033436 9.61309260773868 6.929847343942304 0 0 0
203 1 8.123539361072257 10.855283571395086 8.174362947367138 0 0 0
205 1 6.814130285244491 12.116825040241922 6.789599280762972 0 0 0
176 1 9.447553201284018 9.522004133809894 6.762684960587985 0 0 0
213 1 12.196967734234047 12.16862490798788 6.771957712988363 0 0 0
184 1 15.020185978923122 9.597416785407136 6.669644086646963 0 0 0
211 1 13.618965572761672 10.76501582092123 8.141581399259538 0 0 0
221 1 17.663820528081178 12.316577988228802 6.582302372874119 0 0 0
192 2 20.43330806082447 9.55083932991371 6.890353428612721 0 0 0
219 1 19.031934363680488 11.015262390042155 7.997181074199891 0 0 0
194 1 0.024194727031978853 13.763590832849975 8.254050805592462 0 0 0
200 1 4.199856358676888 14.825165579900581 6.852605571898996 0 0 0
202 1 5.436058080166172 13.52825967723564 8.30032387363445 0 0 0
208 1 9.45299003064339 14.798217939810511 6.71805233439451 0 0 0
210 1 10.859178269566245 13.609702259379448 8.26631941306757 0 0 0
216 1 14.800632870000268 14.988872214726202 6.740350105353859 0 0 0
218 1 16.294736576815474 13.710009705908506 8.071653350309147 0 0 0
224 1 20.339856666272336 14.945654514756281 6.728665868907997 0 0 0
227 1 2.775205792005444 16.426319319220532 8.18540169172962 0 0 0
229 1 1.2141356244284913 17.802708971703638 6.9811830497943 0 0 0
235 1 8.179894062299669 16.341319621940332 8.180125993541917 0 0 0
237 1 6.801002718203541 17.747112706157097 6.793396964767516 0 0 0
245 1 12.29176706683009 17.56819916970842 6.624430771616548 0 0 0
243 1 13.51958669849513 16.300998726786858 8.118639561130589 0 0 0
253 1 17.798697113307732 17.59472820248733 6.79430379401183 0 0 0
251 1 18.89985518594996 16.21065520288966 8.159589744825844 0 0 0
226 1 21.677017703883987 19.066718725273976 8.358021200915491 -1 0 0
232 1 3.918724882399808 20.456792200322717 6.8869392558386275 0 0 0
234 1 5.2935646367932545 19.13884449309997 8.21596028790179 0 0 0
240 1 9.43446850700761 20.377374312834828 6.7758120521257155 0 0 0
242 2 11.00638003978253 18.95736100458012 8.125341620837528 0 0 0
248 1 15.025521643361296 20.405940150964497 6.794211203634096 0 0 0
250 1 16.441468447171975 19.050709927586603 8.157922323110698 0 0 0
256 1 20.42681398889122 20.39624378968811 6.722296200469597 0 0 0
257 1 21.654391215325916 0.20445242835256056 10.910869045967885 -1 0 0
260 1 2.6555332357853514 2.8080585262322817 10.768524224185132 0 0 0
261 1 1.1415840473838452 1.4782630006136055 12.01058465670772 0 0 0
135 1 4.04157112157053 1.4785621296087499 9.333955531627476 0 0 0
265 1 5.254130807282345 0.3273668984564543 10.941848315211152 0 0 0
268 1 8.32266436379079 2.6185306309877148 10.911711794390499 0 0 0
269 1 6.8264662429370775 1.421396720588806 12.507011640677012 0 0 0
143 1 9.63109025916136 1.283386268223116 9.59064932426565 0 0 0
273 1 10.962787110164829 21.725863482269965 10.9891706875201 0 -1 0
277 1 12.418218610967763 1.31992879540176 12.26989056882558 0 0 0
151 1 14.883426729293284 1.3826894501352203 9.502341430435916 0 0 0
276 1 13.611654081546169 2.907120063571416 10.934447567470809 0 0 0
281 2 16.33646967447587 0.1669221352244948 10.729958330109465 0 0 0
285 1 17.768068453274903 1.3195798068843625 12.237611754108714 0 0 0
159 1 20.397163713440708 1.5275985977833408 9.437747928175327 0 0 0
284 1 18.992508701728575 2.967132406671003 10.878744400032001 0 0 0
134 1 1.5023041961721422 4.16239825610575 9.20567261864097 0 0 0
289 1 0.09917313550213425 5.3315238607788 10.780286010107204 0 0 0
264 1 3.983171469649866 4.100318777449262 12.388862625413008 0 0 0
297 1 5.4882495704150625 5.443803425125118 10.925352596067226 0 0 0
142 1 6.734198868796347 3.951908412167743 9.608509415952039 0 0 0
150 1 12.193539952380457 4.121587146573154 9.555264952615715 0 0 0
272 1 9.590363076963024 4.0789189168014826 12.214825561446965 0 0 0
305 1 10.876482451250073 5.569090667286383 10.937451764588994 0 0 0
280 1 15.035729525505113 4.1312435408993435 12.329323921644573 0 0 0
158 1 17.672498872580203 4.284140943132018 9.47092191924855 0 0 0
313 1 16.472181946933464 5.602681341059287 11.095406011916001 0 0 0
288 1 20.425058972318148 4.276186795728664 12.245981264798338 0 0 0
292 1 2.8110008041039265 8.145797045287667 10.717157583355306 0 0 0
293 1 1.3795836485989728 6.798438841677969 12.148335401129732 0 0 0
167 1 4.210976073418973 6.677401082378577 9.352395102587694 0 0 0
300 1 8.085136969173213 8.15147642729784 10.904070751212673 0 0 0
301 1 6.77404706139006 6.940330748355978 12.214382330926043 0 0 0
175 1 9.446120058836815 6.769809287903853 9.495027517046177 0 0 0
309 1 12.313983628580905 6.770937958341757 12.13700333753235 0 0 0
183 1 15.059048085336958 6.875479494198433 9.426741093188035 0 0 0
308 1 13.770160677232337 8.166741405942542 10.859942345890891 0 0 0
317 1 17.98732067220917 6.898217247539177 12.258223132559422 0 0 0
191 1 20.522246341627046 6.729862648454301 9.434479229850446 0 0 0
316 1 19.27052632291301 8.155731063609302 10.758814949054786 0 0 0
166 1 1.37330433973003 9.671614759698118 9.418231162735422 0 0 0
321 1 0.001891474056958077 11.124995708744297 10.714522140296184 0 0 0
325 1 1.271465082778707 12.423627680238978 12.221433931295072 0 0 0
199 1 3.9211571729762045 12.276512197168378 9.534088096229896 0 0 0
296 1 3.9912556256983978 9.576010548864355 12.104522934914606 0 0 0
329 1 5.4288700806880446 10.93685294643696 10.722071756097566 0 0 0
174 1 6.963614964689083 9.492540685679842 9.489848758179546 0 0 0
333 1 6.746766433845048 12.12040965469518 12.151195368456747 0 0 0
182 1 12.279957647316191 9.502914201404476 9.478112695429951 0 0 0
207 1 9.41552563992348 12.196874277487943 9.480318255828628 0 0 0
304 1 9.576640932571816 9.459643526219189 12.142269073907464 0 0 0
337 1 10.875222101205159 10.914790226393889 10.834988763054877 0 0 0
341 1 12.270984088531335 12.169439637860519 12.083356284438233 0 0 0
215 1 14.970308151712073 12.261391778180434 9.558635996393276 0 0 0
312 1 15.145851118624243 9.524273541936461 12.192558198930575 0 0 0
190 1 17.71621863469868 9.546705353191848 9.315449422850449 0 0 0
345 1 16.36341745386459 10.888698453198913 10.794018821188374 0 0 0
349 1 17.53363341411943 12.187187888270083 12.282955482300368 0 0 0
223 1 20.29992771593987 12.449366391493875 9.511559679730928 0 0 0
320 1 20.48680517785446 9.528837384681037 12.194371946214652 0 0 0
198 1 1.3041260993496522 15.179695758330334 9.587190860901579 0 0 0
324 1 2.6197526325807687 13.783497109022006 10.900761572308244 0 0 0
328 1 3.9582583131609175 14.96730354866166 12.426234487356856 0 0 0
206 1 6.731277752191552 15.058242786163317 9.523320721879928 0 0 0
332 2 8.089601052410993 13.570849389653693 10.932388202280562 0 0 0
214 1 12.151165944897526 14.950278013885258 9.54516185745092 0 0 0
336 1 9.411314049634287 14.948352852072276 12.333405054576522 0 0 0
340 1 13.561569759560754 13.773441741651643 10.917358975436473 0 0 0
344 1 15.054348463521116 15.127034847090783 12.222540218824276 0 0 0
222 1 17.62921813202243 14.858913576391636 9.51842478805317 0 0 0
348 1 18.90803124043834 13.627294134498918 10.947838169340736 0 0 0
352 1 20.25385119880056 14.876999269648019 12.280673625830307 0 0 0
353 1 21.490771342761846 16.4575112839563 10.971377991176553 -1 0 0
357 1 1.2564485212159786 17.7915587091733 12.269599275263822 0 0 0
231 1 4.207065989344051 17.734759712106406 9.725735712914583 0 0 0
361 1 5.496896206905323 16.342392395795635 11.064992992821923 0 0 0
365 1 6.873223970378276 17.616572129884112 12.26504661623535 0 0 0
239 1 9.434486617068243 17.809800829780688 9.623621136996023 0 0 0
369 1 10.67987586281074 16.304051553135306 10.839348566977774 0 0 0
373 1 12.2871225818078 17.608269075553277 12.318828539508436 0 0 0
247 1 14.966508562282074 17.618323581583685 9.409950500363047 0 0 0
377 1 16.396615857016474 16.364159892803837 10.802636483665951 0 0 0
381 1 17.60306948210478 17.616392641414375 12.238044491369575 0 0 0
255 1 20.27749152055869 17.746237245128604 9.546168745613956 0 0 0
230 1 1.2680234156992547 20.39756945002451 9.572261535268185 0 0 0
356 1 2.6922837645645914 19.113622261583327 11.022938703644504 0 0 0
360 1 4.029223011207401 20.52746831565514 12.397312045852129 0 0 0
238 1 6.69323476986477 20.62515205526253 9.632927947553037 0 0 0
364 1 7.953542999517671 19.165445264494227 11.001136310983085 0 0 0
246 1 12.22029719088561 20.359521804221757 9.504207693739747 0 0 0
368 1 9.570664280526172 20.337938995673507 12.284218776310466 0 0 0
372 1 13.606738485339154 18.92678015173322 10.871045945073263 0 0 0
376 1 15.050798050949803 20.378600223094224 12.120876061256157 0 0 0
254 1 17.623950223829723 20.38880136184862 9.450683620236079 0 0 0
380 1 18.831721478023674 18.980600493356967 10.828557080955619 0 0 0
384 1 20.36823683446226 20.37081552128988 12.197619025092798 0 0 0
258 1 21.620733964452057 2.844577570715123 13.64384254893691 -1 0 0
259 1 2.492094145671609 0.25214711249390986 13.66182330622884 0 0 0
263 1 4.244213414721358 1.4351996798631612 14.911007832988542 0 0 0
266 1 5.464453886730374 2.776299461546809 13.727524611225952 0 0 0
267 1 8.211778535768554 0.04688587842652465 13.71261823305044 0 0 0
271 1 9.720565448895638 1.3703946207450748 15.070071985219583 0 0 0
274 1 10.881161097737424 2.7266148156250516 13.687860441542735 0 0 0
275 1 13.642868334667842 21.469039567319587 13.588913167895209 0 -1 0
279 1 14.837394474850083 1.240110764150722 15.10928976821639 0 0 0
282 1 16.312106245605495 2.5860611205863955 13.666432563542395 0 0 0
283 1 19.127049609673403 21.74305085052582 13.625369097355073 0 -1 0
287 1 20.316109075669967 1.3176941564698412 15.151200189892455 0 0 0
262 1 1.2640382598547482 4.164166293745863 14.897285666374572 0 0 0
291 1 2.6034799277722294 5.675822382416407 13.634772561978927 0 0 0
270 1 7.010353448992949 4.149214984929564 14.997936549105408 0 0 0
299 1 8.166493513814588 5.528064486832645 13.45361583888289 0 0 0
278 1 12.201896273637583 4.121856245420722 15.048861201462993 0 0 0
307 1 13.598172559921654 5.478823294685981 13.613864083263639 0 0 0
286 1 17.577914653247575 4.146707186355658 15.021630285335888 0 0 0
315 1 19.03222364838354 5.489381139129491 13.672038541493006 0 0 0
290 1 21.64922846085068 8.176020757136696 13.544634883904477 -1 0 0
295 1 3.9843090193325588 6.918140778423487 15.039471222028013 0 0 0
298 1 5.3596429348592975 8.171097092838398 13.603707253902392 0 0 0
303 1 9.562229824911546 6.792937090484614 14.8428314100635 0 0 0
306 1 10.93604018784274 7.996366625066872 13.498878688827949 0 0 0
311 1 14.971737537495597 6.72374172979503 14.763088186629801 0 0 0
314 1 16.496672602089312 8.210177316157251 13.623948478736434 0 0 0
319 1 20.51805329016767 6.786122723764393 15.02761786588891 0 0 0
294 1 1.1612229738112838 9.420841622612086 15.076002208099856 0 0 0
323 1 2.5099681998718286 10.83732021056851 13.613498829847295 0 0 0
327 1 4.171868721029059 12.081183253139821 14.977580412736863 0 0 0
302 1 6.701778569811873 9.528457802880068 14.808237884412799 0 0 0
331 1 8.22421912721207 10.886385863420664 13.598687889686685 0 0 0
310 1 12.326826158067075 9.421111652161862 14.941147670803266 0 0 0
335 1 9.671290465248944 12.13519559877838 14.887409308242669 0 0 0
339 1 13.669814311557875 10.719015241268067 13.499116350494612 0 0 0
343 1 14.961419573659802 12.196251617821986 14.997262369054006 0 0 0
318 1 17.777468509527395 9.55269865944994 15.050895018635757 0 0 0
347 1 19.009826211741196 10.76572534279751 13.683112479252461 0 0 0
351 1 20.299416860883145 12.11410697777859 14.93676520872667 0 0 0
322 1 21.588375025090006 13.654006906772418 13.688742189218424 -1 0 0
326 1 1.2922761518474328 15.01500897414955 15.014758204458705 0 0 0
330 1 5.368393910142389 13.388502559857654 13.534545933813638 0 0 0
334 1 6.659710698044417 14.770205719628487 14.886057827376323 0 0 0
338 1 10.959533232589607 13.554409920942165 13.573807451344551 0 0 0
342 1 12.272594576671418 14.880026273879375 15.073806123689527 0 0 0
346 1 16.13151234186852 13.502990063212023 13.565297899224019 0 0 0
350 1 17.481460065094744 14.77350483755014 14.921201140013858 0 0 0
355 1 2.5221569509067105 16.258999387109586 13.722216042772553 0 0 0
359 1 4.124310057318005 17.582715300786536 14.840289180264545 0 0 0
363 1 8.101772978681263 16.288785514617718 13.690686822359634 0 0 0
367 1 9.55546290376142 17.521522317573247 14.91623948621219 0 0 0
371 1 13.597693676838707 16.24096252918117 13.609967336035025 0 0 0
375 1 14.959355919540801 17.64875142777363 14.936554949227487 0 0 0
379 1 18.85811124653632 16.158081942929496 13.557019002658697 0 0 0
383 1 20.21577319757026 17.79838730994667 14.73529380231857 0 0 0
354 1 21.69351886557838 19.149808608858415 13.499704476005697 -1 0 0
358 1 1.312131785022541 20.330798917808522 15.002464346802013 0 0 0
362 1 5.495085192910244 19.00590368843747 13.592357144304994 0 0 0
366 1 6.822532263267215 20.498418733209906 15.015067708052527 0 0 0
370 1 11.005964756738583 19.016424452402738 13.704207809508976 0 0 0
374 1 12.301196395509473 20.322852618573524 15.179146935151524 0 0 0
378 1 16.322900532318325 19.03791930870733 13.637821745272877 0 0 0
382 1 17.748347369692265 20.527325919416704 14.93887922243093 0 0 0
385 1 21.621423335075733 21.667548093508106 16.509751125318914 -1 -1 0
388 1 2.6787732166192257 2.759570215144949 16.298224135932667 0 0 0
389 1 1.459651914234997 1.2883569749156631 17.733235956815776 0 0 0
393 1 5.566240090040403 0.18637926647046793 16.416928665313 0 0 0
396 1 8.239755370240575 2.672609413323871 16.293939022117865 0 0 0
397 1 6.922697872948953 1.4491903644115702 17.69616003832379 0 0 0
401 1 10.919984537564943 21.64604526788884 16.569798628180013 0 -1 0
405 1 12.205488762413438 1.2658006248559126 17.89856143708395 0 0 0
404 1 13.508968776517802 2.627614497860274 16.383813472298847 0 0 0
409 1 16.403219233485547 0.006494860434601301 16.38016102117169 0 0 0
413 1 17.688440254625615 1.402342649873164 17.713537218249563 0 0 0
412 1 18.916919589003143 2.7146494856294443 16.412353056971284 0 0 0
417 1 0.021595275275234086 5.4705942994904015 16.443206655019477 0 0 0
392 1 4.115058958125545 4.124323000709338 17.675829571943765 0 0 0
425 1 5.454569926666333 5.403629442929919 16.121677499508632 0 0 0
400 1 9.536501272175553 4.016428475451248 17.586602156675138 0 0 0
433 1 10.824310323506657 5.437728138246685 16.4430432521778 0 0 0
408 1 14.906416242111305 4.11455225737486 17.754887894362927 0 0 0
441 1 16.244783922086036 5.457568036093579 16.345561689204025 0 0 0
416 1 20.316023353351394 4.056341927414899 17.857301656537626 0 0 0
420 1 2.703994090385907 8.20479868177978 16.37984865068696 0 0 0
421 1 1.3660166312398303 6.922391574634784 17.716979479870595 0 0 0
428 1 8.227820622326943 8.11583058735266 16.253632798575865 0 0 0
429 1 6.775658567656378 6.788711008853274 17.569227296800765 0 0 0
437 1 12.269552233446 6.595517866404727 17.829829840243754 0 0 0
436 1 13.52750894356246 7.862895446612312 16.300555745281756 0 0 0
445 1 17.68617647457393 6.87147851084023 17.73653096516661 0 0 0
444 1 19.094464663405084 8.214064869449407 16.34080263237094 0 0 0
449 1 21.744209551075496 10.975530447059363 16.42498968840443 -1 0 0
453 1 1.3551438691095061 12.377879634504982 17.506958711576733 0 0 0
424 1 4.005794216044359 9.50040162925658 17.794902240374253 0 0 0
457 1 5.444532061527135 10.79497197416508 16.311907916980164 0 0 0
461 1 6.722391573174555 12.324060787259564 17.598490795275637 0 0 0
432 1 9.538081553299142 9.45750025047281 17.60520001196883 0 0 0
465 1 11.015717678153097 10.722534423653967 16.365543475870187 0 0 0
469 1 12.421531815537678 12.25064206334496 17.678636766170087 0 0 0
440 1 14.814886484203974 9.382640924430737 17.660904817938523 0 0 0
473 1 16.29788396294402 10.847094830365174 16.287694769230683 0 0 0
477 1 17.594578363635865 12.206837040476652 17.561325569710863 0 0 0
448 1 20.26966766338553 9.605191731283952 17.699157439629772 0 0 0
452 1 2.706062347962663 13.542948058598391 16.10675935463022 0 0 0
456 1 3.9345794196511554 14.922960730666178 17.6757544843122 0 0 0
460 1 8.122718121634442 13.520797196325036 16.167386412467334 0 0 0
464 1 9.415043949715647 14.967849167437505 17.68632434987785 0 0 0
468 1 13.635367920344432 13.558431462440755 16.26316402597094 0 0 0
472 1 15.030583708585452 14.817308896705224 17.645361339984966 0 0 0
476 1 18.89356744503212 13.564137523853569 16.27303921306714 0 0 0
480 1 20.26955578032525 15.0285416278559 17.560926417471165 0 0 0
481 1 21.606935982636468 16.39259246704376 16.232819093169248 -1 0 0
485 1 1.356440965668018 17.612519844174198 17.571679590582203 0 0 0
489 1 5.503253251677743 16.120147406620926 16.347376609126197 0 0 0
493 1 6.64068788804399 17.708567331987492 17.826782553698347 0 0 0
497 1 10.826203153301531 16.283967748825216 16.2553888828144 0 0 0
501 1 12.114766364060328 17.576057644100022 17.693174673195415 0 0 0
505 1 16.337040440217926 16.07571120844447 16.318493650502084 0 0 0
509 1 17.616357561467407 17.465341296393 17.712497396619288 0 0 0
484 1 2.7556496212326818 18.967975319751734 16.241026379869282 0 0 0
488 1 4.038981439696754 20.547596216083697 17.715994594541534 0 0 0