LAMMPS data file via write_data, version 29 Aug 2024, timestep = 10000000, units = metal

512 atoms
2 atom types

0 21.79363031 xlo xhi
0 21.79363031 ylo yhi
0 21.79363031 zlo zhi

Masses

1 28.0855
2 12.011

Atoms # atomic

5 1 1.4862964527483595 1.33806720062228 1.3301913911848295 0 0 0
4 1 2.85902052402869 2.7946976528510508 21.575123575444053 0 0 -1
10 1 5.565306526914601 2.911630119827286 2.853759897247561 0 0 0
9 1 5.3107410799149255 21.764795039852828 0.24671270297051606 0 -1 0
13 1 6.645811746714109 1.331121806377627 1.5563158404941893 0 0 0
21 1 12.303407087743874 1.383238452166459 1.32621404040404 0 0 0
18 1 10.775658127624624 2.620630912605359 3.031625763935102 0 0 0
19 1 13.576887423134625 0.015767185644897097 2.878481974270767 0 0 0
20 1 13.534837971172491 2.7321312640625584 21.66315717466612 0 0 -1
29 1 17.83041107061897 1.1192750811233967 1.0986343079949754 0 0 0
26 1 16.394427511857266 2.68860428928331 2.4451954146718475 0 0 0
2 1 0.16765051886359217 2.7400423002522696 2.4999695265785715 0 0 0
27 1 19.07742509393738 21.613898476824424 2.58903697108785 0 -1 0
35 1 2.69218455593293 5.40446939516614 2.6088063313167393 0 0 0
8 1 4.090852874603557 3.97313182975839 1.3285990019598866 0 0 0
43 1 8.0526374530071 5.296339498324576 2.725154188401495 0 0 0
16 1 9.425927558126393 3.8578444581200872 1.4587664024508675 0 0 0
49 1 10.90970120502637 5.30958265989575 0.129223717357263 0 0 0
24 1 14.676872692374976 4.110110157253962 1.435451051393057 0 0 0
51 1 13.578989596871196 5.590219279241651 2.830791190913288 0 0 0
32 1 20.514803244626243 3.988068755499178 1.3181977737356312 0 0 0
59 1 19.069153702460735 5.37993602786138 2.615480444392926 0 0 0
33 1 0.016193672597140107 5.235133266360389 0.04408277044288411 0 0 0
37 1 1.3438682334779501 6.63738114590186 1.2100723887546532 0 0 0
34 1 0.005686183830437841 8.140676047701259 2.583877833450222 0 0 0
42 1 5.427065516791711 8.112677036880298 2.4680342788380862 0 0 0
45 1 6.880727563334566 6.598353808218612 1.5307104453075902 0 0 0
44 1 8.175304841113997 7.9555078240379835 21.74393886863447 0 0 -1
50 1 10.82365482236229 8.269542746429737 2.897816981395312 0 0 0
53 1 12.16316113388431 6.870079638925668 1.2710465014522037 0 0 0
52 1 13.818632167972167 8.21542941610568 21.635605800952 0 0 -1
61 1 17.847799196949524 6.659649244938322 1.2768316322834576 0 0 0
58 1 16.492498915614718 7.921802479295236 2.614641030400512 0 0 0
60 1 18.977934998323754 7.767549460504489 21.436216198700592 0 0 -1
67 1 2.7300204947843447 10.878421159045438 2.825311592412402 0 0 0
69 1 1.1765904791319937 12.043122988428278 1.5942489981753374 0 0 0
40 1 3.9096034764056675 9.610328995024023 1.3470548999537477 0 0 0
73 1 5.280936114869278 10.960107452819711 0.03097539971463594 0 0 0
75 1 7.9675701846262275 10.688449188735966 2.5048312377202744 0 0 0
77 1 6.671794187787998 12.343601601798706 1.30009155033655 0 0 0
48 1 9.46858136185778 9.330862260988793 1.2481822391147288 0 0 0
85 1 12.30088286998798 12.083064835223155 1.3240961596285539 0 0 0
81 1 10.853360781676319 10.84677470978534 21.661636449835086 0 0 -1
56 1 15.136743869816184 9.474945293560275 1.372815934693858 0 0 0
83 1 13.710170881807143 10.87369128231686 2.7021574429630544 0 0 0
93 1 17.898308368733595 12.049322849329348 1.3334172641739421 0 0 0
89 1 16.498619199662468 10.793642116365387 21.75800882275915 0 0 -1
65 1 0.04023466113492921 10.601804995360123 21.691555810501374 0 0 -1
64 1 20.41979281239791 9.350862884325906 1.091309003561285 0 0 0
91 1 19.217719572132008 10.634110218364365 2.6555233669710296 0 0 0
68 1 2.519052456012389 13.370751995930911 0.20998106994634824 0 0 0
72 1 3.915311430716414 14.693015110236262 1.4609862873272952 0 0 0
74 1 5.329814513427281 13.581443495944518 2.7804837667794424 0 0 0
76 1 8.17265579187676 13.606003275082927 0.1427275558532699 0 0 0
80 1 9.550091819778633 14.887418227882453 1.4926196617739624 0 0 0
82 1 10.764387136233708 13.424479640212253 2.7543498664183956 0 0 0
88 1 15.13470630227586 14.869772010532039 1.4488267212219632 0 0 0
90 1 16.52039718891568 13.384429556443688 2.6503206185463855 0 0 0
66 1 21.610259913660087 13.70183044435374 2.821942973241831 -1 0 0
96 1 20.490277986693393 14.803673748883313 1.280119716882625 0 0 0
92 1 18.89089544027254 13.64280206702254 21.770279593773804 0 0 -1
101 1 1.1831210750612295 17.52079522801736 1.550503502848228 0 0 0
99 1 2.4624231349965218 16.185818454820915 2.817467233706285 0 0 0
105 1 5.233906727968943 16.291304996797106 0.16674973491119907 0 0 0
109 1 6.756562576321905 17.72623880530368 1.472838596234078 0 0 0
107 1 8.069547375536342 16.26888243037471 2.756791576617248 0 0 0
117 1 12.13229014007258 17.70819246376592 1.504389023708867 0 0 0
113 1 10.792683435158331 16.384127489428167 0.12624781294434229 0 0 0
115 1 13.68864180928845 16.20030412057038 2.732602409151369 0 0 0
125 1 17.516816546390658 17.757135150796046 1.3417661380057753 0 0 0
97 1 0.12927690148238902 16.171735900247178 0.07479533158119622 0 0 0
123 1 19.11046538456641 16.32000120015277 2.2059716784242998 0 0 0
3 1 2.7842190570274687 21.790293199006353 2.8661522088967923 0 -1 0
106 1 5.356355333657023 19.181833716199073 2.8359789749587883 0 0 0
104 1 3.909434726182538 20.49965850210619 1.4248514901476859 0 0 0
11 1 7.95997030759523 21.745873022208556 2.8480583095307086 0 -1 0
112 1 9.37096164937896 20.457432487641054 1.2800522867677582 0 0 0
114 1 10.855727175890873 19.261104727959413 2.635594381861718 0 0 0
120 1 14.717384867657888 20.526390900559292 1.2929462692083635 0 0 0
122 1 16.101213109369365 18.90730233678624 2.5968129859692777 0 0 0
98 1 0.05509997627486907 19.25690754498112 2.7897078968895364 0 0 0
128 1 20.38197863344774 20.256036521418846 1.3246260238734062 0 0 0
132 1 2.6796677618195353 2.672237305665471 5.592457973341172 0 0 0
7 1 4.062166515794113 1.424505955392302 4.236052656496803 0 0 0
137 1 5.702815794516322 0.21860877322962935 5.655532026418347 0 0 0
140 1 7.997094120915239 2.9536025115240734 5.613087670852432 0 0 0
15 1 9.2744129944291 1.5463739991616507 4.160282965261462 0 0 0
23 1 15.063471569230053 1.3257045414062516 3.8789131697188917 0 0 0
148 1 13.69034986078134 2.6542744883251363 5.274820142972011 0 0 0
31 1 20.635710521938506 1.3723016320254433 3.711785527393685 0 0 0
156 1 19.214033440636854 2.7852273960888754 5.253682750719112 0 0 0
6 1 1.3860996493040618 4.039932036760212 4.004433555383262 0 0 0
161 1 21.74644029567967 5.421375780928969 5.3542571266677585 -1 0 0
169 1 5.283107058662792 5.666880955656012 5.53670310494104 0 0 0
14 1 6.78840378878022 4.367203987989238 4.357763922807637 0 0 0
177 1 10.784546576983901 5.303651975989153 5.653563791653496 0 0 0
22 1 12.256989859708455 4.006048597169966 4.049096262335714 0 0 0
30 1 17.706960123531452 4.115320675636006 4.039076627103313 0 0 0
185 1 16.399183021987234 5.647565286905958 5.35910092365268 0 0 0
164 1 2.5889592405529824 8.245833395847827 5.413328840038508 0 0 0
39 1 3.9669323937183227 6.950480603031195 3.9411421162590643 0 0 0
172 1 8.302735142751756 8.27658436469427 5.37648109876692 0 0 0
47 1 9.519009577802672 6.792816298019721 4.080607099294389 0 0 0
55 1 15.11255929701356 6.809545808384 4.010215399878341 0 0 0
180 1 13.755807596778734 8.15523095873777 5.370328733037 0 0 0
63 1 20.43785294094032 6.707077885358853 4.097975851852867 0 0 0
188 1 19.042604861046822 8.018643047389741 5.471367377077948 0 0 0
38 1 1.1975339927819195 9.671763495414458 4.127915181891252 0 0 0
201 1 5.427405286778096 10.702336759303003 5.441247047746286 0 0 0
71 1 3.9953675444303287 12.219603659095506 4.262415673084628 0 0 0
46 1 6.7810257921502854 9.248498377646458 4.013739492873634 0 0 0
209 1 10.913591653749522 10.93847288943691 5.406874816190215 0 0 0
54 1 12.324523799821758 9.470352985630974 4.037880084661014 0 0 0
79 1 9.362252302991271 11.948837140046422 3.99679678361727 0 0 0
87 1 14.979154757115094 12.38048951342736 3.9515211211290278 0 0 0
62 1 17.711158100345358 9.442111005147344 3.964647011937912 0 0 0
217 1 16.34623848993433 10.888100848585038 5.294555936964445 0 0 0
193 1 21.776981320596132 11.155298066785246 5.44108073846472 -1 0 0
95 1 20.416460381995996 12.33768394892534 3.9687935723347323 0 0 0
70 1 1.3383226090167681 14.82759429509543 4.25407106625305 0 0 0
196 1 2.66335938568271 13.740874922367682 5.696986982748275 0 0 0
78 1 6.7137862126366255 14.992567726687168 4.1344220022000036 0 0 0
204 1 8.285013119055774 13.550143584738425 5.363502872723531 0 0 0
86 1 12.226456951960321 14.823503817703719 4.060282032934855 0 0 0
212 1 13.669237104164292 13.613252702749588 5.475640050225079 0 0 0
94 1 17.643747978645045 15.16245453058365 3.841132480992882 0 0 0
220 1 19.095006794348702 13.798707461190173 5.108767060209164 0 0 0
225 1 21.570950275169356 16.381178662362625 5.300385470283342 -1 0 0
103 1 3.7779454281842284 17.733770245166145 3.9263954218727632 0 0 0
233 1 5.166101235711627 16.379258148082005 5.4831391471654225 0 0 0
111 1 9.741295934404745 17.6445897871264 3.915784092948871 0 0 0
241 1 10.785212063287517 16.127941090519986 5.529779065128013 0 0 0
119 1 14.81542103730864 17.75472053378419 3.8922581713128306 0 0 0
249 1 16.270696021416466 16.445217280134564 5.356400522900651 0 0 0
127 1 20.204953801129918 17.560294994352954 3.8356230328394374 0 0 0
129 1 0.05755485434289653 0.34146266371706935 5.4938746858427026 0 0 0
102 1 1.3738559101877612 20.542172586358838 4.193750946349489 0 0 0
228 1 2.765669907206892 19.130421409573778 5.507751936115614 0 0 0
236 1 8.24407230249117 18.883798758186515 5.355347824265501 0 0 0
110 1 6.81251763304619 20.281891206399337 4.156651420300881 0 0 0
145 1 10.70783179720322 0.2151387337805275 5.442312215435011 0 0 0
118 1 12.192848308515554 20.535910568407242 4.2637866650614065 0 0 0
244 1 13.450725619142307 18.90953544880375 5.35537396531493 0 0 0
153 1 16.268162725569884 0.07362031268114677 5.388030269880803 0 0 0
126 1 17.546747965492596 20.41975782186888 3.9897998173470604 0 0 0
252 1 18.99971558729437 19.242145292703167 5.375835645291133 0 0 0
133 1 1.5389934884403202 1.2670112947751377 7.020647510647934 0 0 0
131 1 2.585052918788337 21.579995706715792 8.335853659130706 0 -1 0
138 1 5.306296289171664 2.598530070545044 8.161836068501804 0 0 0
141 1 6.861444206207322 1.4570426780589918 6.943991129020946 0 0 0
146 1 10.891873526318278 2.765172505314729 8.323497406309553 0 0 0
149 1 12.20427482592513 1.319807673119597 7.025895203971253 0 0 0
157 1 17.51059340854437 1.6719182760798896 6.772099973477863 0 0 0
154 1 16.126212800945424 3.0650641309492475 8.226129726670758 0 0 0
130 1 0.17475837346562884 2.794995782085113 8.115249652886359 0 0 0
163 1 2.3822265206762636 5.457423168856355 7.918623662203417 0 0 0
136 1 4.007820654440847 4.249043424892417 6.846262452208222 0 0 0
171 1 7.914217854204798 5.394352090349517 8.271543629974614 0 0 0
144 1 9.395257264227089 4.007211869036163 7.025831110312363 0 0 0
152 1 14.869511017622902 4.254422035273393 6.667380459094226 0 0 0
179 1 13.760357715617353 5.489444984985034 8.170372892839287 0 0 0
187 1 18.89510088774058 5.430361694038668 7.948010610098029 0 0 0
160 1 20.434676666554704 4.069012434595364 6.671748258367017 0 0 0
165 1 1.1150156755489893 6.72603353615277 6.627317232171347 0 0 0
162 1 21.63208756706441 8.082748582499077 8.101387437548219 -1 0 0
170 1 5.464901430307438 8.21348466384739 8.2916750177985 0 0 0
173 1 6.743750192018275 6.993645703481214 6.903148960205643 0 0 0
178 1 10.694924087383683 7.8427964420087 8.162401274969346 0 0 0
181 1 12.321032742995047 6.701305396080652 6.974590267989014 0 0 0
183 1 15.112512971852148 7.0036378176529706 9.537151370064478 0 0 0
186 1 16.376648811714247 8.35891317936358 8.18167308993291 0 0 0
189 1 17.57981482823253 6.812936261508092 6.887329150032769 0 0 0
195 1 2.742257959314016 11.092079979325309 8.408121420171394 0 0 0
197 1 1.4401034123143566 12.287165014000086 7.054298228478442 0 0 0
168 1 4.008803958737451 9.543842135787326 6.831688902527145 0 0 0
203 1 8.228729447894702 10.865133823832876 8.09612963506574 0 0 0
205 1 6.881994409424712 12.337589589015366 6.807895294438285 0 0 0
176 1 9.758029325565717 9.514155963878414 6.61527884727631 0 0 0
213 1 12.28516104516874 12.175641762000897 6.700590099595563 0 0 0
184 1 14.94045775065747 9.64612104911584 6.858776186686348 0 0 0
211 1 13.526423463901295 10.760683287284497 8.314827395415358 0 0 0
221 1 17.743698938348917 12.309470385980438 6.86711413424844 0 0 0
192 1 20.399104615803143 9.717292798564964 6.4731935775811005 0 0 0
219 1 19.165019597576794 10.765089522420752 8.279630627807457 0 0 0
223 1 20.421086814158485 12.416556053230996 9.788724792534772 0 0 0
200 1 4.055136049742518 14.965974463931781 6.968158049122902 0 0 0
202 1 5.445875398997775 13.596660080892155 8.14482415982889 0 0 0
206 1 6.773409757778517 14.991899756097903 9.625405263485137 0 0 0
208 1 9.586404540011138 14.775297762580038 6.824144416119754 0 0 0
210 1 10.858675894907504 13.518141281410625 8.317703118820889 0 0 0
216 1 15.109007233140026 14.938922819036797 6.811885474640941 0 0 0
218 1 16.475697885575425 13.646701193502826 8.113224516639646 0 0 0
222 1 17.65532356475376 14.96949816579715 9.46862317619264 0 0 0
194 1 0.0725266939981779 13.561113265446114 8.310179281278186 0 0 0
224 1 20.53336922340085 15.022195179433925 6.702058440473059 0 0 0
229 1 1.3171584689614682 17.862760087907464 6.8783954453370475 0 0 0
227 1 2.915261829879003 16.533259331531344 8.251961130760836 0 0 0
235 1 8.073927243072731 16.18862201461644 8.07781592453625 0 0 0
237 1 6.857559065955474 17.438939357459862 6.701667645855726 0 0 0
245 1 12.278609917640551 17.545533101619974 6.759701985033823 0 0 0
243 1 13.578476984071248 16.1467265292215 8.238644824514939 0 0 0
253 1 17.67922824028362 17.779719786167433 6.719743319018588 0 0 0
251 1 19.134905329650888 16.43728112631208 8.153772922948502 0 0 0
226 1 21.63495518652605 19.219726912879405 7.979486149575031 -1 0 0
234 1 5.5316730665985965 18.990651385337905 8.145969864857044 0 0 0
232 1 4.21669313654594 20.42678951285966 6.899881014159476 0 0 0
139 1 8.389390196666596 0.027837337381594777 8.072915169667725 0 0 0
240 1 9.609452244212049 20.489019765913152 6.680996872800915 0 0 0
242 1 10.747546597620783 18.916536334990756 8.060389185049264 0 0 0
147 1 13.766360448709278 0.061631555800502724 8.249165293192485 0 0 0
248 1 14.766523511102745 20.44431337932346 6.656009698773357 0 0 0
250 1 16.371908678433872 19.105721880956924 8.0409567679014 0 0 0
155 1 18.951809413542378 0.503490731099813 8.38139366102395 0 0 0
256 1 20.280779738509636 20.728656446807136 6.823638492647358 0 0 0
261 1 1.1522482004619494 1.6167840186721212 12.478156321683796 0 0 0
260 1 2.4312209638689946 2.7951768824666146 10.849027823129235 0 0 0
135 1 3.8935781933537625 1.300099653610222 9.703122547357781 0 0 0
265 1 5.445518939407446 21.72860168688232 10.871648147199803 0 -1 0
268 1 8.120873326019733 2.544617323371187 10.918752336678596 0 0 0
269 1 6.803398516221418 1.3884572489966411 12.245585950055563 0 0 0
143 1 9.62296509003941 1.2837553933789332 9.529089123502414 0 0 0
277 1 12.526313226667108 1.2057456256477348 12.203975383302094 0 0 0
273 1 11.197820859188731 0.01397353121437808 10.658522765926858 0 0 0
151 1 15.149489553325003 1.437505882457007 9.31276948622918 0 0 0
276 1 13.741470016825337 2.7640872597820367 10.685895287033539 0 0 0
281 1 16.22487483748966 21.724937151252046 10.973082238108901 0 -1 0
285 1 17.824873063328987 1.128603027291347 12.451026953564874 0 0 0
159 1 20.561045845155746 1.6002726167120547 9.536015598879164 0 0 0
284 1 18.944734527346057 2.5689041535585266 10.955047910705533 0 0 0
257 1 21.793073563805397 0.28432403713570054 10.902971187217663 -1 0 0
134 1 1.308653253574938 4.16913127047098 9.519630669029313 0 0 0
289 1 21.635591886437474 5.542183557498054 10.677691572332629 -1 0 0
297 1 5.267101163418254 5.394134259949275 10.935549331465328 0 0 0
264 1 3.88126554547033 4.008213786967487 12.411226293339366 0 0 0
142 1 6.705953934212969 4.001653119351557 9.601059088988912 0 0 0
305 1 10.82772433577935 5.661013856124763 10.97284065000412 0 0 0
272 1 9.57493539150244 3.9455432367335836 12.042268041292065 0 0 0
150 1 12.26077415835618 4.246158616099837 9.541276418348557 0 0 0
280 1 15.173076891833254 3.9923210541078453 12.071133398852805 0 0 0
158 1 17.647004128514784 4.143345922495885 9.501676695144099 0 0 0
313 1 16.46054325019477 5.552457288099287 10.829718233102135 0 0 0
288 1 20.480533033473833 3.9371912508363596 11.986659802246583 0 0 0
292 1 2.6622514636256573 8.274988250704064 10.848225115759373 0 0 0
293 1 1.3716907825617095 6.828300491001849 12.1466241426139 0 0 0
167 1 3.8711512619529884 6.778128865039948 9.29404624673191 0 0 0
300 1 8.108286735074431 8.357331522576517 10.98145013573952 0 0 0
301 1 6.824552619305154 6.942117165823514 12.26126004703402 0 0 0
175 1 9.239206120675139 6.732509820747977 9.57480294182547 0 0 0
309 1 12.529545082208513 6.787851275871665 12.372160230974828 0 0 0
308 1 13.444721566514803 8.195320581468268 10.76077924438738 0 0 0
312 1 14.75167771663641 9.632149911738464 12.296776025899765 0 0 0
317 1 17.755514709178563 6.878139860677932 12.340354740706303 0 0 0
191 1 20.113142408501062 6.922062281461971 9.37721353559638 0 0 0
316 1 19.300306328499538 8.308363982552532 11.095242952601293 0 0 0
166 1 1.486521931177367 9.564124456998044 9.424676440812332 0 0 0
325 1 1.5634008238091903 12.451686104993302 12.122356429760668 0 0 0
199 1 3.9715222756981734 12.523579366791635 9.621006817743005 0 0 0
296 1 4.1931404421436245 9.427359459944842 12.264137895901257 0 0 0
329 1 5.464915089888495 10.877007739331056 10.815079155931924 0 0 0
174 1 6.890879797411991 9.566504614987638 9.388335062848546 0 0 0
304 1 9.650761893446344 9.439813035074302 12.243795951052421 0 0 0
333 1 6.8780654904929515 12.012133906675597 12.328032943820574 0 0 0
207 1 9.416139273398047 12.218924217918147 9.750622708727946 0 0 0
337 1 10.883451752952443 10.788691987894964 10.908391776778087 0 0 0
182 1 12.07295689301198 9.315521494231577 9.429094077559373 0 0 0
215 1 15.111672902578473 12.297188656225483 9.51479097910951 0 0 0
190 1 17.686181040115713 9.545366395976425 9.688595146620465 0 0 0
345 1 16.29965188026874 10.784780642550167 10.988130257312852 0 0 0
349 1 17.847603383297294 12.144819054321282 12.21585683101438 0 0 0
321 1 0.07400518818979117 11.062764839414486 10.897179081846723 0 0 0
320 1 20.674348097294367 9.693432173186128 12.268965548469225 0 0 0
198 1 1.4499505240464117 15.129342990778708 9.421209258921408 0 0 0
324 1 2.779018933825788 13.984682314524287 10.884282484752413 0 0 0
328 1 4.216384822423102 15.061661697044665 12.456037734993131 0 0 0
332 1 8.172444381202896 13.767472260906331 11.025439399600804 0 0 0
336 1 9.516414862275456 15.12759302901456 12.249909096414864 0 0 0
214 1 12.19653714848393 14.8999396034712 9.541624882956796 0 0 0
340 1 13.545944376868121 13.510839400628553 10.975340409124046 0 0 0
344 1 15.022180897711147 14.9920980524068 12.211314778133497 0 0 0
348 1 18.90385918165345 13.884496384394641 11.037881648409664 0 0 0
352 1 20.850659063463933 14.940819006257446 12.118133680270956 0 0 0
231 1 4.070231104559198 17.8645755943838 9.75762597478874 0 0 0
361 1 5.426487111374124 16.26822622443703 11.054525601132019 0 0 0
365 1 6.865949043946304 17.741370944211372 12.367147022617468 0 0 0
239 1 9.543789540562223 17.47565375240918 9.399305801218445 0 0 0
369 1 10.92646079169334 16.510274515497702 10.835172653900475 0 0 0
247 1 15.008522589111665 17.74603455477271 9.365129764336592 0 0 0
373 1 12.462540483736698 17.8163229689021 12.13871958157779 0 0 0
377 1 16.380015599048747 16.35371472373518 10.71663422858256 0 0 0
381 1 17.818080832558163 17.692422006464952 11.99516209173557 0 0 0
353 1 0.19838127412197873 16.597530452808375 10.869902945429386 0 0 0
255 1 20.539474796282786 17.766937703036582 9.43839243732785 0 0 0
230 1 1.1290915809636888 20.594166476650912 9.741213426193022 0 0 0
356 1 2.6595349333735228 19.27744196272297 11.141819881930765 0 0 0
360 1 4.006621872699271 20.563932339733398 12.306338387192303 0 0 0
238 1 6.939850860576599 20.465490281932425 9.496126017851374 0 0 0
364 1 8.331486611012828 19.08014754957042 10.90014206492019 0 0 0
246 1 12.278938767299252 20.36241226439017 9.332846915776013 0 0 0
368 1 9.87284268310857 20.471514871655646 12.260218330738063 0 0 0
372 1 13.603173289868865 19.045248769947598 10.648770187929129 0 0 0
254 1 17.685328938829308 20.51826922863804 9.476674661493458 0 0 0
380 1 19.1050408455385 19.14359354317535 10.692137825846967 0 0 0
384 1 20.46944409583366 20.407549053527372 12.04256067210673 0 0 0
259 1 2.618330069473487 0.05361974791832935 13.593979797257475 0 0 0
263 1 4.166308884713887 1.3726311752100595 14.958485805635666 0 0 0
266 1 5.332402650502282 2.6789445250087875 13.58955188907215 0 0 0
267 1 8.483388446366703 21.698228045935686 13.536172745989557 0 -1 0
271 1 9.54952927676536 1.4703570665941446 14.806193306206465 0 0 0
274 1 11.02062912939879 2.6571029493007363 13.521934690228083 0 0 0
279 1 14.816158414389067 1.2590505227149686 14.823988598977522 0 0 0
282 1 16.235192648041842 2.637867445339816 13.6204969258907 0 0 0
287 1 20.573993748238276 1.5823872602778482 14.821474307919376 0 0 0
283 1 19.24178258364427 0.0016315037599112907 13.467362815544348 0 0 0
262 1 1.358468774051431 4.158964248936162 15.164515745619047 0 0 0
291 1 2.620529886451769 5.327640420816105 13.701729910812638 0 0 0
270 1 6.736251705218008 4.133134855929545 14.871082336919331 0 0 0
299 1 8.25382435099614 5.525438635194311 13.555318172180788 0 0 0
278 1 12.343812052134805 4.023094912237071 15.18552731232564 0 0 0
307 1 13.624375905609442 5.0528377641286255 13.563970415676001 0 0 0
286 1 17.46486055904335 4.048805112600008 14.961115259614518 0 0 0
258 1 21.68325501007208 2.950643321062003 13.571617922172146 -1 0 0
315 1 19.091745257974438 5.40263514784957 13.430095090409425 0 0 0
295 1 4.173404391286481 6.83889443253924 14.897330726365507 0 0 0
298 1 5.537138682092332 8.253529022659764 13.65545199574705 0 0 0
303 1 9.759707406907935 6.709008082604253 14.952496335486305 0 0 0
306 1 10.952159077305835 8.060976622762018 13.678368642577546 0 0 0
311 1 15.010371026797838 6.582043569768718 14.9671439406642 0 0 0
314 1 16.251146190701512 8.188960740278622 13.805558532146893 0 0 0
290 1 0.03359949387034169 8.269671438368018 13.624476710168452 0 0 0
319 1 20.436621562176413 6.72438507831103 14.811642220881302 0 0 0
294 1 1.6513503445557962 9.220127976337697 15.078052593790494 0 0 0
323 1 2.7728596105267242 10.957992702819585 13.62289870903489 0 0 0
327 1 3.9125708085685535 12.294090103220672 15.006810516512001 0 0 0
302 1 6.995371243246996 9.500607256283006 15.063917516545612 0 0 0
331 1 8.374052227150987 10.826351329339355 13.71528627688079 0 0 0
341 1 12.195512589907873 12.01481497324668 12.437032486501753 0 0 0
335 1 9.549290664064047 12.27280047767817 15.190222209385103 0 0 0
310 1 12.24171521275101 9.447978056513367 15.088693949484906 0 0 0
339 1 13.632813318333346 10.974423574021548 13.720694429668765 0 0 0
343 1 15.205623014656082 12.318516027265762 14.966886858777967 0 0 0
318 1 17.693615589792323 9.610363888752484 14.919806927420371 0 0 0
347 1 19.183439963017754 10.770711756126035 13.582412450320694 0 0 0
351 1 20.731192759334732 12.165810905413867 14.756955548935125 0 0 0
326 1 1.2981941965154409 15.09498452203735 15.154070774866518 0 0 0
322 1 0.4228057352078203 13.542502899991854 13.713018607074323 0 0 0
330 1 5.42754048594705 13.65849021607998 13.85103778398619 0 0 0
334 1 6.788315781645285 15.000563372214895 15.03932760032871 0 0 0
338 1 10.933290577259786 13.624358502133534 13.59094041137292 0 0 0
342 1 12.466333407890648 15.036575915199458 14.86395360353096 0 0 0
346 1 16.445879455714934 13.64829402060394 13.466926489027891 0 0 0
350 1 17.75410127533313 14.972137866378068 14.70102373590695 0 0 0
357 1 1.4705957246731076 17.700957832632408 12.434410426510244 0 0 0
355 1 2.8420925183799253 16.442155995179164 13.761822936052996 0 0 0
359 1 4.0559267999572155 17.908207348691214 15.029719595405762 0 0 0
363 1 8.209875571060328 16.449736533545625 13.621686998043453 0 0 0
367 1 9.644175082326276 17.611313915773525 15.237356089987363 0 0 0
371 1 13.873375597090126 16.375040699707302 13.529464970241314 0 0 0
375 1 15.162036342558693 17.953967022875887 14.773454107172716 0 0 0
379 1 19.29578743801649 16.252630630749984 13.356521500521492 0 0 0
383 1 20.632958486663473 17.814991541111194 14.89045475124823 0 0 0
358 1 1.2648549965718536 20.670778347531627 14.895385742603503 0 0 0
354 1 0.18359824612038528 19.110189953124703 13.511691674348736 0 0 0
362 1 5.51813136634415 19.124889821587683 13.601152786398307 0 0 0
366 1 7.087367707919891 20.421068822999953 14.816328464173498 0 0 0
370 1 11.052609554125404 18.84560495949252 13.66169289620899 0 0 0
374 2 12.135521526819785 20.306147238000534 15.11904476827155 0 0 0
376 1 14.69780342688076 20.402322379206456 12.08689359461004 0 0 0
275 1 13.602110300094205 21.615398122641572 13.770577637574283 0 -1 0
378 1 16.509759494251576 19.243885704442498 13.45291681922346 0 0 0
382 1 17.896801163556045 20.396232400044745 14.92448058961257 0 0 0
389 1 1.5085181621661272 1.4686817682252946 17.646326445461856 0 0 0
388 1 2.913310337091141 2.716442372484189 16.3518458032127 0 0 0
385 1 0.039660894763482446 0.14102388135141197 16.357539805277337 0 0 0
393 1 5.801057996901194 0.16747237712941399 16.388074144209316 0 0 0
397 1 6.847138938380347 1.7606995240496022 17.464435979365057 0 0 0
396 1 8.23121643767553 2.955899208613266 16.155353284001368 0 0 0
405 1 12.088502323859004 1.438700275143931 17.695876403109835 0 0 0
401 1 10.69845348193322 0.005354290757367153 16.361819633530626 0 0 0
404 1 13.590854957204785 2.696814466955352 16.466395711005514 0 0 0
413 1 17.832744332524445 1.3750120798032117 17.284832491865014 0 0 0
409 1 16.34333460100511 0.09183184106583298 16.01429760182803 0 0 0
412 1 19.11101803658518 2.85022072827201 16.013222856939965 0 0 0
392 1 4.362593624183917 4.31572637073636 17.753139021488522 0 0 0
425 1 5.423477690744265 5.631016935725928 16.14620644710354 0 0 0
400 1 9.28638811849787 4.375252716105954 17.647624682662048 0 0 0
433 1 10.926921145697614 5.355458089804639 16.410788374179084 0 0 0
408 1 14.856110235407014 3.905491429117523 17.94473442656081 0 0 0
441 1 16.268655798008325 5.32001487562238 16.59629254057799 0 0 0
417 1 21.78515258709715 5.4045405873040835 16.3634966433439 -1 0 0
416 1 20.6001458771092 4.1426739010283 17.82797985616192 0 0 0
421 1 1.563179905119282 6.806027268650182 17.77185699002243 0 0 0
420 1 2.967119835140238 7.970952149907689 16.50726732924507 0 0 0
428 1 8.419890803351196 8.28985552960439 16.256074006914726 0 0 0
429 1 6.8075045024176735 7.092410844453936 17.41384554711441 0 0 0
437 1 12.256946227621956 6.755571434119758 17.904431761633024 0 0 0
436 1 13.743255916989378 8.158699609552508 16.1776292922041 0 0 0
440 1 14.933550956568553 9.483071912983279 17.68298362523387 0 0 0
445 1 17.82612174114438 6.786223637630733 17.885850287660304 0 0 0
444 1 19.155425598348117 8.186691551055961 16.327310522861033 0 0 0
453 1 1.1794033504600816 12.228262611147478 17.880171847952372 0 0 0
449 1 0.025228507940251887 10.65579499495689 16.309485724704878 0 0 0
424 1 4.217574735551097 9.61807173975959 17.776164609672158 0 0 0
457 1 5.4514293874045965 10.821577217620998 16.44832634360676 0 0 0
461 1 6.664525072014503 12.334075990019866 17.89913227190074 0 0 0
432 1 9.529144448386631 9.463107302906916 18.001448233758094 0 0 0
465 1 10.886626467433624 10.74309109479586 16.613979715425632 0 0 0
469 1 12.357139456967722 12.324720812688474 17.73298661416492 0 0 0
473 1 16.41683718459487 10.88356803884252 16.386533276211175 0 0 0
477 1 18.154669498830458 12.014696659847722 17.84409790303553 0 0 0
448 1 20.536533512747276 9.469756246437733 17.70681377161631 0 0 0
452 1 2.757269821392913 13.907807278771282 16.438316781194807 0 0 0
456 1 4.179380036335302 15.113808897529852 17.915870610033494 0 0 0
460 1 8.224536740262218 13.738118723995841 16.56361944096614 0 0 0
464 1 9.575278045849862 15.183655200532586 17.936600269461135 0 0 0
468 1 13.679561467605252 13.579928669379862 16.27857126187451 0 0 0
472 1 15.003686861273938 14.964312898400252 17.661236208147404 0 0 0
476 1 19.089373959538207 13.46035960643322 16.09803181578487 0 0 0
480 1 20.352190694925326 15.089793130722466 17.714300047057076 0 0 0
485 1 1.3333346517834173 17.834709505152137 17.73571890602841 0 0 0
489 1 5.365421735648947 16.556696786914056 16.502491261895653 0 0 0
493 1 6.708836091584533 17.94036121538107 17.96869229211285 0 0 0
497 1 11.148627858271022 16.356410272150132 16.490685956723407 0 0 0
501 1 12.523388075818104 17.59840620951557 17.672169290331674 0 0 0
505 1 16.43853374646797 16.373608663540427 16.166190403182604 0 0 0
509 1 17.581442345578104 17.759197080572527 17.63306594745139 0 0 0
481 1 21.590898598897983 16.5256661483738 16.524493531085696 -1 0 0
484 1 2.6603184733640286 19.356053480644356 16.276785559626404 0 0 0
488 1 4.22372252032427 20.617954043870782 17.60914775186224 0 0 0
492 1 8.141079923537173 18.845318044667295 16.5536437924493 0 0 0
496 1 9.492782502261393 20.37431365254917 17.729770433267788 0 0 0
500 1 13.77385889756012 19.15566233515238 16.351281037766846 0 0 0
504 1 15.011718258066674 20.614196579544327 17.823003582706125 0 0 0
508 1 19.15195095336921 18.926011429979276 16.4328906717218 0 0 0
512 1 20.487618212355535 20.535291044573473 17.72740708436132 0 0 0
391 1 4.107257089057296 1.2750523822600501 20.468067273658843 0 0 0
394 1 5.305145498229595 2.8101989925720985 19.166612522028107 0 0 0
12 1 8.064730256832625 2.5582878510567895 0.004341401888132838 0 0 0
395 1 8.21367830236397 0.2127732237983011 19.058003549236577 0 0 0
399 1 9.440887874935651 1.3665515664784693 20.524488014230364 0 0 0
402 1 10.639377583641748 2.827862471938598 18.951748104636028 0 0 0
17 1 10.767346586177204 0.08711509098687387 0.07308359588839576 0 0 0
407 1 15.065885872878875 1.2884767724496555 20.249108085838454 0 0 0