LAMMPS data file via write_data, version 29 Aug 2024, timestep = 10000000, units = metal

512 atoms
2 atom types

0 21.76561954 xlo xhi
0 21.76561954 ylo yhi
0 21.76561954 zlo zhi

Masses

1 28.0855
2 12.011

Atoms # atomic

1 1 0.004813716397194405 0.09216221957126505 0.1691411030670132 0 0 0
2 1 0.07005678291453431 2.766061677959243 2.7281764275720297 0 0 0
3 1 2.715561751312985 21.63386220418619 2.8736881204248914 0 -1 0
4 1 2.6066407793825808 2.91072058128323 0.30684246697349965 0 0 0
5 1 1.4053542167208304 1.2991659670258442 1.5673793510305452 0 0 0
9 1 5.498632884086369 0.12606361235003172 0.021502634003790756 0 0 0
10 1 5.5113730872760405 2.9315244099239868 2.7492827882453557 0 0 0
11 1 8.151850640380385 21.636660541264522 2.8970186759795036 0 -1 0
12 1 8.328408739562517 2.639876014593139 0.038463700626284396 0 0 0
13 1 6.882085922934318 1.355654721048522 1.418397596310233 0 0 0
17 1 11.01926324957701 21.585246426224842 21.72430579236083 0 -1 -1
18 1 10.833558227843714 2.601859447975591 2.6675177827100796 0 0 0
21 1 12.235250520411675 1.2727842491819044 1.285972061658656 0 0 0
19 1 13.65063278948782 0.019800273226275016 2.6723336956290464 0 0 0
20 1 13.475312760864787 2.5263156379747733 21.672760162268776 0 0 -1
25 1 16.247805456411967 21.56035095667605 21.749455144012586 0 -1 -1
26 1 16.351696074069423 2.8862445710491924 2.6910344775844157 0 0 0
29 1 17.622519248673726 1.4000865950601415 1.2290536208874963 0 0 0
27 1 19.099192211633 0.04291115380369753 2.563622208764717 0 0 0
28 1 18.931122834678224 2.7912662527062717 0.03636809576513914 0 0 0
33 1 21.642291781032643 5.580158399239752 21.694479970906034 -1 0 -1
35 1 2.5264466251603657 5.376374691101791 2.8506105054114883 0 0 0
8 1 4.0172386785378595 4.278532276419862 1.466095440415457 0 0 0
41 1 5.513128529375388 5.35283637829118 0.05828473269059533 0 0 0
43 1 8.21772958386124 5.383426581864774 2.731459511772687 0 0 0
16 1 9.585813584951222 4.002237171072912 1.4374313286939657 0 0 0
49 1 10.748953212641492 5.498317607444341 0.11120683562397199 0 0 0
24 1 14.91130861993646 4.029953155057849 1.2670468587734645 0 0 0
51 1 13.621637780368006 5.407963278196409 2.748334347907814 0 0 0
57 1 16.36097038189756 5.584382427617224 0.06677380826033523 0 0 0
32 1 20.35986944646932 4.205289809515137 1.3866384468302928 0 0 0
59 1 19.03808851999309 5.515831127554461 2.850008974326534 0 0 0
34 1 0.21897683252448377 8.123924527976099 2.640406130871932 0 0 0
36 1 2.8172573520030744 8.213065879966843 21.565130329927054 0 0 -1
37 1 1.4124032499202135 6.803139920632509 1.2332485533049327 0 0 0
42 1 5.503391174044545 8.14830041861434 2.568217250623527 0 0 0
44 1 8.301052550204213 8.138968201383586 21.621714814686356 0 0 -1
45 1 6.95795064344265 6.74946611159978 1.3508484881779392 0 0 0
50 1 10.742477169454876 8.228439405606672 2.861871667955896 0 0 0
53 1 12.183788690985716 6.77813225337292 1.4768155535888559 0 0 0
52 1 13.518493203114003 8.365480283386692 0.08883703420500456 0 0 0
58 1 16.370448013748 8.097228155098556 2.912131514390802 0 0 0
61 1 17.65054477944264 6.758163777198109 1.5904793426998631 0 0 0
60 1 18.727053658221053 8.112517823829268 0.017449364835103787 0 0 0
65 1 21.614610830541256 10.809789064682747 21.739227564171216 -1 0 -1
67 1 2.621315792593877 10.746162002677544 2.6182698926454284 0 0 0
69 1 1.4591118990581355 12.19174584174725 1.2217160776018297 0 0 0
40 1 4.0397802699375 9.44198643660526 1.2166932966897168 0 0 0
73 1 5.489249768708534 10.733078775177491 0.0462868381992483 0 0 0
75 1 8.212393077555886 10.903468743132505 2.9385416608009542 0 0 0
77 1 6.914040899295314 12.061442579945059 1.2661918735637987 0 0 0
48 1 9.30833626839516 9.582515473744271 1.5099105425215267 0 0 0
81 1 10.739293106990258 10.725062056216773 0.03263674998767684 0 0 0
85 1 12.09557011211489 12.381010155956723 1.2838023911438123 0 0 0
56 1 14.861539192167802 9.664263317554 1.3647151918124911 0 0 0
83 1 13.689074878076621 11.158323464322578 2.833489219155345 0 0 0
89 1 16.27879386881953 10.973495945563382 21.716922421298616 0 0 -1
93 1 17.81662485567785 12.30405314108618 1.2063971912601104 0 0 0
64 1 20.33435595865656 9.453774508879388 1.3301213722577732 0 0 0
91 1 18.98592994369762 10.784470954437495 2.59613120814291 0 0 0
66 1 21.727010701235507 13.644470509260714 2.5151535244812204 -1 0 0
68 1 2.765162540651761 13.527268672870095 21.654959173217005 0 0 -1
72 1 4.2591103958956165 14.821149477377883 1.2650468996601665 0 0 0
74 1 5.7404766816072454 13.53701483773177 2.586222026789513 0 0 0
76 1 8.200149189340248 13.58318364344366 21.678829663469823 0 0 -1
80 1 9.401753837415857 15.017728837851983 1.2638531438909453 0 0 0
82 1 10.6898463226077 13.681531313544532 2.66584024705704 0 0 0
84 1 13.604131770136387 13.790680129261123 0.10649449274366345 0 0 0
88 1 15.119105057286042 15.088883498991196 1.3685155206179327 0 0 0
90 1 16.357761987890314 13.463955889620323 2.6764021897893087 0 0 0
92 1 19.11990813142774 13.628913841790649 21.51736296457951 0 0 -1
96 1 20.300717292271116 14.904102752022157 1.2608254231750384 0 0 0
97 1 0.146000397600015 16.232825680328784 0.04819444200226785 0 0 0
99 1 2.889285531227926 16.001882283984823 2.6267661528734427 0 0 0
101 1 1.5207795737320793 17.65537917630657 1.4690032511019262 0 0 0
105 1 5.622619851087949 16.26816760788834 21.71931534019991 0 0 -1
107 1 8.027658662740622 16.389371131904102 2.699163969039005 0 0 0
109 1 6.744718587343092 17.801760080601973 1.331932953787351 0 0 0
113 1 10.662279025004405 16.44103492030314 21.737878812001316 0 0 -1
117 1 12.415577873385901 17.577165974860126 1.215557262408994 0 0 0
115 1 13.685288524683365 16.48307624513485 2.7527519026905756 0 0 0
121 1 16.43606520648376 16.307179053569026 21.656320468724406 0 0 -1
125 1 17.721943253923786 17.838353308371186 1.4467795108575168 0 0 0
123 1 19.01877761424388 16.19617170059306 2.632987679613688 0 0 0
98 1 21.679949435208187 19.072328900281917 2.730481241492878 -1 0 0
100 1 2.8360972009875125 18.986456185932724 0.11610243454898035 0 0 0
104 1 4.063697249523694 20.432063639308414 1.4306518044846546 0 0 0
106 1 5.335530500146014 18.894659247180346 2.815896514151527 0 0 0
108 1 8.142364209972136 19.277707395285084 21.58931148859673 0 0 -1
112 1 9.509769987505548 20.363977271011727 1.484146384670445 0 0 0
114 1 10.955182095109334 18.876750645274036 2.554507633404783 0 0 0
116 1 13.742498343637129 18.9022804349624 21.682961005278003 0 0 -1
120 1 14.809719849017831 20.3661261775768 1.4276507264644285 0 0 0
122 1 16.316018684200564 19.130297974650233 2.814296993156138 0 0 0
124 1 19.12311038571492 18.999757798104007 21.739867572811683 0 0 -1
128 1 20.375386916337668 20.46613626498153 1.2545133893568603 0 0 0
129 1 21.67730320101197 21.618485028052184 5.66962902221296 -1 -1 0
132 1 2.820517204455021 2.667773401286702 5.54200014902999 0 0 0
7 1 4.160620093548003 1.4605568454708033 4.125243433195803 0 0 0
137 1 5.3497065231340795 0.057341987819397075 5.56127261152983 0 0 0
140 1 8.297998895344804 2.811102391401626 5.565294903383318 0 0 0
15 1 9.51216136279683 1.3413843650751676 4.119358204872955 0 0 0
145 1 10.79013769509624 21.72486913823705 5.480776470009767 0 -1 0
23 1 14.918504838441967 1.5313699352051477 4.031283493367859 0 0 0
148 1 13.534444799747176 2.692199829580341 5.461365815635427 0 0 0
153 1 16.325370457032367 0.11834365826205473 5.459821524702508 0 0 0
31 1 20.46451262401406 1.2961150099685377 4.123262266924316 0 0 0
156 1 19.157457873263485 2.7009731631336393 5.479427288192031 0 0 0
6 1 1.3807716726245398 3.9139300874299314 4.165715823455705 0 0 0
161 1 0.04985846939042832 5.373602522265004 5.465081919356368 0 0 0
169 1 5.309727041776292 5.49955876844329 5.413465833487488 0 0 0
14 1 6.97756216285815 4.159222066159113 4.185942413861169 0 0 0
22 1 12.165895759217918 4.01699153685028 4.139666335914661 0 0 0
177 1 10.90855307317311 5.448903401258859 5.456078985374591 0 0 0
30 1 17.66997512323199 4.1884541505043 4.148376671080862 0 0 0
185 1 16.239933981888793 5.553580095618749 5.4070143817331635 0 0 0
164 1 2.6596520603860156 8.250369671501547 5.348849388228809 0 0 0
39 1 4.017638516365063 6.840089858841067 3.9195985325157863 0 0 0
172 1 8.167783327827756 8.122134873409824 5.504206327207777 0 0 0
47 1 9.394757061076072 6.818909933952917 4.121923682685344 0 0 0
55 1 14.874125347004906 6.82383441840823 4.118048173464698 0 0 0
180 1 13.578632313539638 8.200411404437057 5.3669861467835425 0 0 0
63 1 20.56054956184803 6.896184347416339 4.178089109718145 0 0 0
188 1 19.07458986644037 8.329477989681646 5.512379644473725 0 0 0
38 1 1.4188748723944522 9.489588183976124 4.062878604846103 0 0 0
193 1 21.727299985786004 10.958994001319356 5.339010493653612 -1 0 0
71 1 4.1688185898195265 12.235631398515002 3.8324770409091227 0 0 0
201 1 5.468781246725553 10.738320382389263 5.360120905727344 0 0 0
46 1 6.884034158077042 9.397431006168032 4.046110454029034 0 0 0
54 1 12.245786207128504 9.629733326780755 4.109152585613566 0 0 0
79 1 9.472600428450702 12.282748475972008 4.061673208249711 0 0 0
209 1 10.793414518126447 10.967527151563315 5.373676554105941 0 0 0
87 1 15.139680705520824 12.395541970128015 4.2037152013341 0 0 0
62 1 17.72258122901823 9.547610343215942 4.1969463526972515 0 0 0
217 1 16.355407959610716 10.94068589119878 5.432526404253191 0 0 0
95 1 20.325156048897675 12.246588204629369 3.934343967363126 0 0 0
70 1 1.2155989539530188 14.944712527435954 3.917392417235771 0 0 0
196 1 2.74597243292317 13.667170162960998 5.283913513227814 0 0 0
78 1 6.792100865974013 15.130179925599764 4.107905122235408 0 0 0
204 1 7.868435613855327 13.527428856293218 5.421970787060312 0 0 0
86 1 12.122889510860906 15.05801163872449 4.060502189893549 0 0 0
212 1 13.642055232077725 13.89052470828758 5.519840594439531 0 0 0
94 1 17.725159134239124 15.002479419060968 4.027966516695465 0 0 0
220 1 18.889486006041405 13.58796015612761 5.492837655398571 0 0 0
225 1 21.54118595908333 16.09774711287995 5.267929673451953 -1 0 0
103 1 3.9853827818271284 17.693190835960905 4.169513059114793 0 0 0
233 1 5.290057409546126 16.35124823452667 5.484728577846053 0 0 0
111 1 9.531486462538657 17.630616633415652 4.0103161725350995 0 0 0
241 1 10.67852919728925 16.31330797924364 5.520752910117943 0 0 0
119 1 14.999413423467079 17.727623471044232 4.161619623989831 0 0 0
249 1 16.366723479718488 16.497332129766917 5.408398720165341 0 0 0
127 1 20.309727024585108 17.843760358580962 4.048558372427629 0 0 0
102 1 1.340443490033174 20.436033416216222 4.152088335957532 0 0 0
228 1 2.569852303369391 19.1660962809478 5.703931931774193 0 0 0
110 1 6.576221071026754 20.391598313817955 4.172120678231145 0 0 0
236 1 8.040537350604367 18.932091519578673 5.314999033846606 0 0 0
118 1 12.207262113759226 20.4511901429337 4.131261773607435 0 0 0
244 1 13.427977381567654 18.8718470172244 5.3384808714875716 0 0 0
126 1 17.716825620451182 20.520445533393065 4.0842434370341305 0 0 0
252 1 19.099785222097257 19.17261354351101 5.411164486328488 0 0 0
130 1 0.21752685487237997 2.670193132338986 8.065716646691127 0 0 0
131 1 2.733259311963253 0.048225411261420596 8.355843070527554 0 0 0
133 1 1.4765282756482132 1.136498957318556 6.755615700481833 0 0 0
138 1 5.556370955721391 2.61001233372929 8.122088692838558 0 0 0
139 1 8.050915633897336 21.66510964712798 8.194070518287623 0 -1 0
141 1 6.998702222409214 1.2629653588536967 6.632562670991284 0 0 0
146 1 11.007327068984836 2.7923896493529106 8.204370921923323 0 0 0
149 1 12.137705922066333 1.3299659172944698 6.78593983466964 0 0 0
147 1 13.675572861554437 21.75508550561184 8.172770499679057 0 -1 0
154 1 16.477700767351383 2.715093220375491 8.23231461638093 0 0 0
157 1 17.602975148628243 1.2878876908173107 6.857829256056191 0 0 0
155 1 18.850630474645897 21.662899213320163 8.253116752629852 0 -1 0
163 1 2.9264970971175788 5.328898822345296 8.176785290001368 0 0 0
136 1 4.176503137401167 4.038621430969668 6.827527199788354 0 0 0
171 1 8.2669999963788 5.418254334710472 8.174302733302616 0 0 0
144 1 9.563909942886884 4.114597257524829 6.8807493600259475 0 0 0
152 1 14.982019480026576 3.880766012569258 6.7588059731440735 0 0 0
179 1 13.76313877486527 5.363473012610109 8.181034658089255 0 0 0
160 1 20.44919747843084 4.024291620972374 6.754990732222471 0 0 0
187 1 19.011955431538823 5.430043624241406 8.202471430666664 0 0 0
162 1 21.678558314401307 8.218452389059804 8.005627244119927 -1 0 0
165 1 1.2966252994151652 6.715148658774133 6.771857910731674 0 0 0
170 1 5.469214285223601 8.028319622133742 8.154388492976722 0 0 0
173 1 6.8274908748981575 6.673732104078573 6.815219736785625 0 0 0
178 1 11.01803882073928 8.017404209296641 8.03374072479238 0 0 0
181 1 12.42225915319052 6.7368047590575335 6.7319098037271345 0 0 0
186 1 16.278914959979762 8.083958272971985 8.185807032540872 0 0 0
189 1 17.6674475166803 6.7897900943846885 6.720260839648036 0 0 0
195 1 2.6556864145846686 10.875480697823404 8.084072464076122 0 0 0
197 1 1.5180662388178359 12.23042224014868 6.639906710170226 0 0 0
168 1 4.1173744722117736 9.44457682536626 6.715118489824843 0 0 0
203 1 8.045020668189766 10.89909560502035 8.225980918614324 0 0 0
205 1 6.5335903534789725 12.276946151294352 6.7688690804572635 0 0 0
176 1 9.559675687711863 9.58233281620471 6.9506164272852535 0 0 0
213 1 12.37221656947014 12.388340138940881 6.854667155529045 0 0 0
184 1 14.999471876187418 9.64407964603655 6.883797087352788 0 0 0
211 1 13.65910428312178 11.04131392293277 8.144227935348193 0 0 0
221 1 17.76162889353324 12.25641305451549 6.759749555795639 0 0 0
192 1 20.400710064461208 9.657869397767612 6.880911694476061 0 0 0
219 1 19.139497727419993 10.908195378932414 8.19069865689062 0 0 0
194 1 0.21628422905529704 13.55064147714481 8.059055559976674 0 0 0
200 1 4.04706793020718 14.947120018433 6.795721259480726 0 0 0
202 1 5.394974555638197 13.713004163446927 8.28175882267128 0 0 0
208 1 9.331941227724542 14.872220757299967 6.870802061172591 0 0 0
210 1 10.744437834671446 13.569174056226137 8.20006463724382 0 0 0
216 1 15.087277629643921 15.077209484323708 6.826701321196703 0 0 0
218 1 16.444599531570095 13.716175072515654 8.028335631265497 0 0 0
224 1 20.40816980855694 14.742411029240014 6.813174292488042 0 0 0
227 1 2.6019713392492934 16.354449131196727 8.27036981209408 0 0 0
229 1 1.0198646725418594 17.367049613934388 6.757920403388432 0 0 0
235 1 8.337894745608569 16.442529285970082 8.282231910973687 0 0 0
237 1 6.849974298502743 17.540284045821934 6.820421507256237 0 0 0
245 1 12.231302533996057 17.453072987545674 6.9067925915240425 0 0 0
243 1 13.573899248415058 16.19422613377987 8.305509305884698 0 0 0
253 1 17.768923602007433 17.628615243839945 6.899771771262865 0 0 0
251 1 19.131302548109634 16.200995116594676 8.116247217934283 0 0 0
226 1 21.655487107041264 18.87227615917687 8.19366793764386 -1 0 0
232 1 4.003713480955676 20.41538142798935 7.037139875130093 0 0 0
234 1 5.319742450967579 18.885703415187887 8.13014157225436 0 0 0
240 1 9.535560338187608 20.216167476944904 6.970561074232506 0 0 0
242 1 11.113075113760422 19.16245136279048 8.354834340976781 0 0 0
248 1 15.021377244977725 20.27303346099274 6.79137385783974 0 0 0
250 1 16.355610932266163 18.892583726752477 8.183359779422213 0 0 0
256 1 20.238978432941124 20.380355220473955 6.947263097553118 0 0 0
257 1 0.0651028146676211 0.06493060925697842 10.605697672858433 0 0 0
260 1 2.7737867850868105 3.0139764380955194 10.905957752790517 0 0 0
261 1 1.5108884748853184 1.3528860108708936 12.126233991853523 0 0 0
135 1 4.1294320822467 1.5335993519229434 9.636407635014296 0 0 0
265 1 5.658278336125453 0.08605197671370117 10.723768830868984 0 0 0
268 1 8.176078626235272 2.787808823351843 10.78829703649705 0 0 0
269 1 6.913100759225993 1.3493349316735384 12.227362168835246 0 0 0
143 1 9.553729520199987 1.3762173891409595 9.326115726610144 0 0 0
273 1 11.121126203331954 0.1600179492616642 11.005594787058232 0 0 0
277 1 12.500933205881253 1.4780380774465272 12.292000300540877 0 0 0
151 1 15.116367778648074 1.3232927919806734 9.480964576573387 0 0 0
276 1 13.814956446081133 2.8233064056098365 10.872716413789178 0 0 0
281 1 16.406822572283932 21.738923797495698 10.858111842726515 0 -1 0
285 1 17.656908270634137 1.4504584372562523 12.269540393238957 0 0 0
159 1 20.427618647697894 1.3029109245212676 9.314249226263732 0 0 0
284 1 19.033458648830305 2.536626397621529 10.832188467777714 0 0 0
134 1 1.4081355049355915 4.047096433905524 9.477446737320227 0 0 0
289 1 21.705322765120123 5.447468514946898 10.784839035718576 -1 0 0
264 1 4.1622109685214435 4.215212610661405 12.33213338550995 0 0 0
297 1 5.5172025128336575 5.454702276677887 10.864074994241756 0 0 0
142 2 6.850203727109745 3.9231789730486457 9.41895084799275 0 0 0
150 1 12.302594262048862 4.149354040497797 9.55749901298412 0 0 0
272 1 9.609789312765722 4.116115691269402 12.335138905051872 0 0 0
305 1 10.82811938574952 5.523919443526446 11.026503882094003 0 0 0
280 1 15.097084111767789 4.052970202812222 12.35397744279538 0 0 0
158 1 17.805424334986142 3.991615390741585 9.655358665243654 0 0 0
313 1 16.32922493695756 5.430821915457039 11.025562951035537 0 0 0
288 1 20.38907619455094 3.947261133741836 11.92128987595194 0 0 0
292 1 2.599185381786243 8.002710819274188 10.907474317223931 0 0 0
293 1 1.2555906504872556 6.783943896384324 12.338536788240344 0 0 0
167 1 4.062174613654218 6.840440506515095 9.509334400609474 0 0 0
300 1 7.99715136392224 8.191236097000917 10.952640117874616 0 0 0
301 1 6.747972814417723 6.821375238510391 12.270068628106218 0 0 0
175 1 9.528105292761742 6.941834237632782 9.597682265947084 0 0 0
309 1 12.194671868043388 6.929265533044455 12.157321497172 0 0 0
183 1 15.066598894830543 6.7211756095869095 9.49528902100931 0 0 0
308 1 13.509929499555689 8.165847804217005 10.649676435619375 0 0 0
317 1 17.674024709977797 6.889036960490014 12.217052154051183 0 0 0
191 1 20.250178799485823 6.927552859930816 9.448680081127987 0 0 0
316 1 18.95906318564535 8.247603618718774 10.790045535590037 0 0 0
166 1 1.257069468795799 9.306413239642643 9.559391110094868 0 0 0
321 1 21.743509531044793 10.896012323686454 10.799930754390669 -1 0 0
325 1 1.264591675631633 12.202103996175001 12.235629561724977 0 0 0
199 1 4.040934047084292 12.10471938743621 9.715659290607245 0 0 0
296 1 3.997899865505296 9.572961362107796 12.187941322107847 0 0 0
329 1 5.395139725934767 10.840546510824478 10.919341016316798 0 0 0
174 1 6.791191880908078 9.431279770651797 9.571822979171442 0 0 0
333 1 6.625458275337605 12.308953595096833 12.318713546978216 0 0 0
182 1 12.15228880267521 9.642159419774602 9.298933136866845 0 0 0
207 1 9.301173494979409 12.327690929737273 9.772142548732122 0 0 0
304 1 9.413094456358447 9.52605652909588 12.3049008482191 0 0 0
337 1 10.83842716754369 10.911849946017522 10.943063486809773 0 0 0
341 1 12.333670720058098 12.22451860940969 12.133032739814125 0 0 0
215 1 15.133041408862692 12.364577984443773 9.444485323666289 0 0 0
312 1 14.940516807474424 9.554648890128796 12.11982632529582 0 0 0
190 1 17.760549433900284 9.560492418620017 9.338670147693099 0 0 0
345 1 16.422619304219968 10.898428525136827 10.793519851277678 0 0 0
349 1 17.587061423571033 12.457848511350377 12.22974348334964 0 0 0
223 1 20.60269456410514 12.290575359435131 9.44759101887857 0 0 0
320 1 20.378364952197952 9.662031307481149 12.185272477360781 0 0 0
198 1 1.3953749315329136 14.86962467107556 9.502799823249864 0 0 0
324 1 2.6404385913531936 13.56474381125844 10.990735723500869 0 0 0
328 1 3.99945316132708 14.999403780499874 12.101597007841574 0 0 0
206 1 6.950559147470767 15.063234465796723 9.57511133785762 0 0 0
332 1 8.018195152015334 13.73953266566621 11.091587358961101 0 0 0
214 1 12.207690497706642 14.862794689944472 9.610383455227959 0 0 0
336 1 9.368622284505731 14.981048807182393 12.386253753093278 0 0 0
340 1 13.70373661360298 13.493100172472811 10.751177602169907 0 0 0
344 1 14.968483443926067 14.750529731959112 12.179049936435007 0 0 0
222 1 17.632128383243593 15.043651029972663 9.452181034038087 0 0 0
348 1 18.928308867904626 13.624107581718725 10.866693894959788 0 0 0
352 1 20.380949034423157 14.886950427799258 12.269010495092175 0 0 0
353 1 21.7157471879792 16.17703242319676 10.831920544956455 -1 0 0
357 1 1.2539800716171716 17.673797318258003 12.243753127140772 0 0 0
231 1 4.051302327517684 17.75295712580346 9.673129071590262 0 0 0
361 1 5.579859111191154 16.49707303245385 11.103352553018794 0 0 0
365 1 6.8756221730971525 17.863649744858552 12.426251261947524 0 0 0
239 1 9.571425135672989 17.788968512091227 9.663927361838592 0 0 0
369 1 10.736802757405867 16.130720499406273 11.031034830012013 0 0 0
373 1 12.211765756976309 17.459451909696597 12.247225877696444 0 0 0
247 1 14.876106444139285 17.64381281750406 9.682361052433404 0 0 0
377 1 16.344438401569143 16.197408153499723 10.95191696029105 0 0 0
381 1 17.619766096674756 17.55015394076454 12.260677578216388 0 0 0
255 1 20.39593950512323 17.538580548625482 9.554957732212936 0 0 0
230 1 1.3169406043349805 20.306995048868114 9.406874196758512 0 0 0
356 1 2.696444174109045 19.26812845044636 11.113802640809709 0 0 0
360 1 4.150368642261676 20.64057596902029 12.210691312227736 0 0 0
238 1 6.732431629138323 20.10535253872053 9.577134177427443 0 0 0
364 1 8.195282986719263 19.074046377953795 11.093225513762643 0 0 0
246 1 12.353435261730214 20.557155226333123 9.828625766563322 0 0 0
368 1 9.50411235240772 20.54435730549755 12.314054742649702 0 0 0
372 1 13.49613145815665 18.947962525451956 11.000125118289189 0 0 0
376 1 15.09159743928633 20.23985942531422 12.253268876848233 0 0 0
254 1 17.622112959008568 20.20215490114539 9.461876945754438 0 0 0
380 1 18.863429921480577 18.91474874513471 10.82816421779293 0 0 0
384 1 20.27610377832173 20.676087633944295 11.937797698017153 0 0 0
258 1 0.00836207348997065 2.6475717032728268 13.534118204692538 0 0 0
259 1 2.851101008849068 0.07095709890146233 13.598130140028477 0 0 0
263 1 4.1361330723820675 1.5023410165948043 14.899067384060006 0 0 0
266 1 5.509300434944253 2.7629194640456323 13.414114106190423 0 0 0
267 1 8.138774553057326 0.1385960735005731 13.683995451932327 0 0 0
271 1 9.62784267473397 1.295618791095328 15.070792750902902 0 0 0
274 1 10.941301268991786 2.799652251565626 13.442339175938848 0 0 0
275 1 13.724442744101367 21.72150316102958 13.56431241669502 0 -1 0
279 1 15.117732787140557 1.2626159022458434 14.999540177166148 0 0 0
282 1 16.498217147148384 2.641259729322863 13.757572522819135 0 0 0
283 1 19.026948533116474 0.17663102725628435 13.528947086802267 0 0 0
287 1 20.37440965568853 1.3552871705305372 15.01411916797953 0 0 0
262 1 1.2977887838970652 4.042717326850083 14.9759187010409 0 0 0
291 1 2.706264451916258 5.416688907647558 13.689308045418453 0 0 0
270 1 6.798221286529658 4.191543552052374 14.83703488980823 0 0 0
299 1 8.264486248232345 5.626104336042792 13.480735876037684 0 0 0
278 1 12.160215570327283 4.20751166619927 14.827987963340385 0 0 0
307 1 13.593269947628148 5.530701324380035 13.550550035359851 0 0 0
286 1 17.91882163053294 3.9673788751613235 15.02190820866444 0 0 0
315 1 19.14169716079068 5.533225000228656 13.560807614531992 0 0 0
290 1 21.728676919676225 8.352393534290389 13.572681409429368 -1 0 0
295 1 4.0120843600480045 6.864377157488374 14.990554152354653 0 0 0
298 1 5.3949638335725165 8.24389093042616 13.52760315517985 0 0 0
303 1 9.527621681080694 6.779692515287946 15.009582504892983 0 0 0
306 1 10.739778463793265 8.162066274191023 13.547933035458973 0 0 0
311 1 14.817501258710367 6.749951459861223 15.060607997727747 0 0 0
314 1 16.003492501198863 8.001517940776974 13.369801729443914 0 0 0
319 1 20.37471688562044 6.865724248066001 14.95453980576038 0 0 0
294 1 1.5405263891584076 9.579101551826671 15.006686397242824 0 0 0
323 1 2.6772444659126036 10.906563052514805 13.542199425295117 0 0 0
327 1 4.1111388339349135 12.109851391508052 14.863745213979698 0 0 0
302 1 6.591413929041896 9.452741941307586 14.973502021534149 0 0 0
331 1 7.938597449550202 10.914421873107607 13.668974893153816 0 0 0
310 1 12.271256812458317 9.560405550139109 14.966767038098105 0 0 0
335 1 9.546871437111966 12.193956534520396 14.768383520294435 0 0 0
339 1 13.628943481255863 10.904710793340255 13.62744325301929 0 0 0
343 1 14.702955974168237 12.29598994222197 15.015691040309363 0 0 0
318 1 17.480507706083667 9.565432936256228 14.846641451546617 0 0 0
347 1 19.01716992193745 10.907933943046347 13.8132363065929 0 0 0
351 1 20.469179935222318 12.144342392890767 15.186679899117301 0 0 0
322 1 21.56872720010022 13.501684021188831 13.71096317426331 -1 0 0
326 1 1.275374573411936 14.785651028342532 14.877643608464236 0 0 0
330 1 5.386030811371823 13.69400896689384 13.598853982548345 0 0 0
334 1 6.565494867140888 14.991339006537606 15.019531194860006 0 0 0
338 1 10.919640914078713 13.642153410251316 13.512759387048188 0 0 0
342 1 12.205955248443644 15.013208542350032 15.023395842550025 0 0 0
346 1 16.153470583427378 13.499038494394584 13.671174850458184 0 0 0
350 1 17.839416639310524 14.868525426132765 14.968380972054012 0 0 0
355 1 2.754950068990078 16.34821710012047 13.55822212360632 0 0 0
359 1 4.130957409013059 17.777048292974044 14.910143707496337 0 0 0
363 1 8.073616566060922 16.293650937899635 13.764306201816956 0 0 0
367 1 9.481312799508773 17.798849319564322 14.974715234061497 0 0 0
371 1 13.566410251927312 16.140564233906932 13.736307641678085 0 0 0
375 1 15.001325493810253 17.368868206428882 15.083586860841919 0 0 0
379 1 19.162057658163217 16.233616067964597 13.696096587100909 0 0 0
383 1 20.585345945809035 17.635690093266003 14.833498746826706 0 0 0
354 1 21.626971278516635 19.22141240781415 13.483910000285517 -1 0 0
358 1 1.3087354435226752 20.64244626152915 14.8048382303417 0 0 0
362 1 5.536001866331395 19.11690682920114 13.585813079029206 0 0 0
366 1 6.882001242652284 20.450099388308942 15.012710042971992 0 0 0
370 1 10.91651752110522 18.981832216095047 13.485736996395445 0 0 0
374 1 12.357368733280007 20.315689217901944 14.863729656057759 0 0 0
378 1 16.439651418276654 18.798867658528454 13.689029264732575 0 0 0
382 1 17.841240322354263 20.35269222805521 14.837338253648984 0 0 0
385 1 21.752908041982817 21.69986232599674 16.486236621181202 -1 -1 0
388 1 2.646297633954708 2.8720669194866892 16.48129623599693 0 0 0
389 1 1.3046473493207222 1.4370825957964917 17.768346617773346 0 0 0
393 1 5.372765674064388 0.058148425039986885 16.397292634850245 0 0 0
396 1 8.086398312693058 2.735662140040643 16.259641254709127 0 0 0
397 1 6.72577142864325 1.423718499587204 17.7389755276157 0 0 0
401 1 11.047987526104729 21.66152753344037 16.17431993928132 0 -1 0
405 1 12.297244049645256 1.4105563089869617 17.566528813256223 0 0 0
404 1 13.636413166163637 2.620701978043887 16.201184257670622 0 0 0
409 1 16.43437034389492 0.023625443630577267 16.18243677518836 0 0 0
413 1 17.602062720850242 1.3689859440532932 17.82064781075034 0 0 0
412 1 19.15846305573716 2.8070170962358256 16.585030620849416 0 0 0
417 1 21.62855105506836 5.36116913791854 16.29923806364407 -1 0 0
392 1 4.0592797052180964 4.142741921491287 17.703997105338026 0 0 0
425 1 5.456305660709302 5.367388988983323 16.222377149651425 0 0 0
400 1 9.313080268409408 4.053804452958936 17.701230233701438 0 0 0
433 1 10.846739537126009 5.466230951253872 16.42378851327599 0 0 0
408 1 14.897335891228163 4.0700888555469605 17.661534056539935 0 0 0
441 1 16.2830329683447 5.399294567284545 16.164684874440418 0 0 0
416 1 20.430914146532174 4.168523001165355 18.09812589388135 0 0 0
420 1 2.8153268732668026 8.229526685557445 16.36235416709192 0 0 0
421 1 1.3339597448482121 6.739986206804073 17.52688142428855 0 0 0
428 1 8.123807109722936 8.033445916056253 16.336622346968813 0 0 0
429 1 6.814995126719489 6.5975228701891195 17.549052530464017 0 0 0
437 1 12.50119592213546 6.714879395022555 17.74934032026669 0 0 0
436 1 13.563097576642349 8.276331715823233 16.283993384619247 0 0 0
445 1 17.687779893239767 6.613433913898036 17.6664194286103 0 0 0
444 1 19.041490444303268 8.290856771793843 16.440753141262828 0 0 0
449 1 0.3300944235758438 10.990162681464861 16.55386783269888 0 0 0
453 1 1.6819402711833746 12.353827036010331 17.661983514960365 0 0 0
424 1 4.007522762707814 9.464711052021011 17.848538290159272 0 0 0
457 1 5.270005988113164 10.945057021064404 16.458696085207304 0 0 0
461 1 6.782068739967496 12.366795146235617 17.565346717902848 0 0 0
432 1 9.47882974426663 9.537375284411523 17.76260199963889 0 0 0
465 1 10.763550166458328 10.861277153243183 16.173087423085825 0 0 0
469 1 12.294682861519208 12.175791987794241 17.715515823262894 0 0 0
440 1 15.01363247822249 9.528522053051889 17.61413484456301 0 0 0
473 1 16.22609372643472 11.057092251792747 16.2666689093717 0 0 0
477 1 17.629411897269712 12.39132868032645 17.698975722661455 0 0 0
448 1 20.559774880308705 9.50878715913142 17.610193928996402 0 0 0
452 1 2.8868763893999607 13.601054460043082 16.22571608345365 0 0 0
456 1 4.1967190070865374 15.046943521733814 17.575352448059263 0 0 0
460 1 8.24074184190157 13.629517743261909 16.085479375240023 0 0 0
464 1 9.515705812492094 15.054743638830791 17.577501647071884 0 0 0
468 1 13.520570446877862 13.685240074099331 16.45181019519472 0 0 0
472 1 14.89057124484443 14.994834889892513 17.639865974433196 0 0 0
476 1 19.066564370297197 13.676929042795106 16.498468972308164 0 0 0
480 1 20.32895697245382 15.021241145733404 17.645682877605363 0 0 0
481 1 0.17932200946649593 16.14647878791773 16.296764888384402 0 0 0
485 1 1.3985062239689303 17.66205006935259 17.534237110109697 0 0 0
489 1 5.425824330225811 16.514301715403167 16.31133311544942 0 0 0
493 1 6.696346966251966 17.791230700464478 17.712461726251114 0 0 0
497 1 10.926957247919681 16.37461603557151 16.362432659809784 0 0 0
501 1 12.357850910398575 17.543938864649533 17.615565758040965 0 0 0
505 1 16.45991704291593 16.167404565347034 16.454275491861427 0 0 0
509 1 17.88541540243781 17.615086868541837 17.542051055544523 0 0 0
484 1 2.707245128939572 19.242014194623515 16.19473697200431 0 0 0
488 1 3.998560215019392 20.528895637816333 17.6582175632305 0 0 0