LAMMPS data file via write_data, version 29 Aug 2024, timestep = 10000000, units = metal

512 atoms
2 atom types

0 21.74780435 xlo xhi
0 21.74780435 ylo yhi
0 21.74780435 zlo zhi

Masses

1 28.0855
2 12.011

Atoms # atomic

1 1 0.08305034618264671 21.721530646358637 21.669617710625804 0 -1 -1
2 1 0.09724867027919043 2.7175135176951977 2.5944905239951477 0 0 0
3 1 2.734794793615683 0.012825919391859201 2.817567879722825 0 0 0
4 1 2.8765281363905033 2.8704353546753185 0.02172087015965736 0 0 0
5 1 1.5558131569313691 1.4172018860035953 1.2313610706453526 0 0 0
9 1 5.3682146626183815 21.743927271255927 0.0014629978161767494 0 -1 0
10 1 5.443445517538713 2.8359358798328005 2.530449831957064 0 0 0
11 1 8.139463118663008 0.008871277999451805 2.7106662642702086 0 0 0
12 1 8.111142532144976 2.806990184734322 21.666409515568528 0 0 -1
13 1 6.821493094327831 1.3686394982517593 1.263088016529594 0 0 0
17 1 10.958277578420027 0.1089451228541932 0.08320423359457395 0 0 0
18 1 10.950625051572864 2.8510121915245876 2.8594628150387877 0 0 0
21 1 12.230275799797985 1.5018690645322947 1.4278289501541706 0 0 0
19 1 13.580370942026917 0.10524992726467215 2.7203249219843806 0 0 0
20 1 13.607758201103353 2.7587565273263333 21.740373204360722 0 0 -1
25 1 16.41429942063277 21.661839041194366 0.0482539757043138 0 -1 0
26 1 16.470398251017887 2.956052679569637 2.641273510553005 0 0 0
29 1 17.767992309054616 1.3563956120537441 1.1915912580330157 0 0 0
27 1 19.235044919178648 0.1975344449860914 2.6793927475080586 0 0 0
28 1 19.172103456387184 2.654681859593799 21.57495647153297 0 0 -1
33 1 21.691043607126236 5.521617767829556 0.017156637740735003 -1 0 0
35 1 2.8268411673976703 5.448270585815608 2.7547434572100995 0 0 0
8 1 4.159809257961501 4.377289869583805 1.3652238547265914 0 0 0
41 1 5.487224186343629 5.568810639839022 21.61184328950724 0 0 -1
43 1 8.173263643034684 5.524699225953456 2.732191381730346 0 0 0
16 1 9.571307886736076 4.127805428156541 1.2741576966844999 0 0 0
49 1 10.959336246220202 5.469723030281049 0.02933331202257766 0 0 0
24 1 15.039940553272459 3.9912494933555984 1.3108917746443864 0 0 0
51 1 13.836564551172932 5.41331916595817 2.730768092495484 0 0 0
57 1 16.36624320414673 5.224382949074864 21.639046805719044 0 0 -1
32 1 20.442072422441615 4.0604162507462505 1.2509762819855308 0 0 0
59 2 19.10774813541684 5.3669646557657344 2.594798690119121 0 0 0
34 1 21.708323029955995 8.24403590875893 2.73556005695799 -1 0 0
36 1 2.8138261517074747 8.080044321300882 21.566325557280432 0 0 -1
37 1 1.4304615817135267 6.87965778562877 1.4256877821804503 0 0 0
42 1 5.33644906085421 8.30518269592369 2.745471609741086 0 0 0
44 1 8.096010459435483 8.199177411436057 0.19161537515135513 0 0 0
45 1 6.61892873975414 6.964672821056205 1.406285940865926 0 0 0
50 1 10.930501520919483 8.116835737067369 2.8511190232253516 0 0 0
53 1 12.298585042876187 6.783304113407911 1.4503877674378771 0 0 0
52 1 13.639512895009231 8.057497068933488 21.71862598254386 0 0 -1
58 1 16.444051447588002 8.075967364255137 2.745587622363909 0 0 0
61 1 17.59504163415366 6.678408940031019 1.2721571609617297 0 0 0
60 1 19.106767793828464 7.954653327062629 21.74175862753812 0 0 -1
65 1 21.7337451094448 10.838454576307225 0.11638484249229938 -1 0 0
67 1 2.65352887295812 10.854373606777548 2.610736418418934 0 0 0
69 1 1.324641894297006 12.347731916343845 1.3272952158466114 0 0 0
40 1 4.049682230759691 9.45708683464346 1.2206091955750966 0 0 0
73 1 5.422089098086384 10.84135993406856 21.560225034169196 0 0 -1
75 1 8.2600598277645 10.942314773265647 2.660122806850615 0 0 0
77 1 6.863130280582762 12.261348006951083 1.1541617811694753 0 0 0
48 1 9.673176080165987 9.588287711975502 1.4832692563367955 0 0 0
81 2 10.937369774129657 10.92053137990252 0.07000573168766631 0 0 0
85 1 12.48577713741652 12.202156576078957 1.3252921217574472 0 0 0
56 1 15.061934473184408 9.309091205231983 1.277441794538175 0 0 0
83 1 13.598548221976824 10.661649837498702 2.5787015941017177 0 0 0
89 1 16.45198207613549 10.761988074834942 0.01697057627228341 0 0 0
93 1 17.78330530954325 12.24571485355111 1.3383648745011052 0 0 0
64 1 20.321417259205884 9.528897314602416 1.3624063584550863 0 0 0
91 1 19.08230533912542 10.958984510584187 2.6909981223569237 0 0 0
66 1 21.56418867543936 13.631298374483887 2.656995554230601 -1 0 0
68 1 2.8588447905589147 13.556192759549027 21.655291765129306 0 0 -1
72 1 4.071874597543839 14.994853374007967 1.320766540795078 0 0 0
74 2 5.359525879942419 13.519900516099295 2.564164008522397 0 0 0
76 1 8.18972710978507 13.660096494763511 21.648428846272388 0 0 -1
80 1 9.531518621334607 14.993773353265391 1.2152574826838494 0 0 0
82 1 11.018507653007113 13.750261495707555 2.4220572346294635 0 0 0
84 1 13.85355366449262 13.501330165025848 0.01787894187421983 0 0 0
88 1 15.086473303849427 14.875827229950279 1.4008477193886608 0 0 0
90 1 16.35751956518822 13.405884272767405 2.762911890598081 0 0 0
92 1 19.21429767971394 13.575025445558204 21.716648543375914 0 0 -1
96 1 20.280592789874465 15.059960615975145 1.3112117300855923 0 0 0
97 2 0.23350986529951817 16.315855951725823 21.738242289318006 0 0 -1
99 1 2.6168150038291746 16.19179519111108 2.66409605499417 0 0 0
101 1 1.3688902483573364 17.785028072524394 1.450710299334705 0 0 0
105 1 5.49259236027506 16.43084811256066 0.07538299060668988 0 0 0
107 1 8.34324101756752 16.43976302393451 2.760874610356152 0 0 0
109 1 6.766066690973106 17.79602102256103 1.3157638520248647 0 0 0
113 1 10.924471029202936 16.34147274327215 21.676995913966067 0 0 -1
117 1 12.329349139060863 17.626010044565966 1.3198084046851533 0 0 0
115 1 13.707144730769796 16.456608257818985 2.8874704832145084 0 0 0
121 1 16.358395522292742 16.40502980790478 0.036539217768706375 0 0 0
125 1 17.572818265784097 17.683340125292897 1.4811341015583352 0 0 0
123 1 19.01889115915825 16.44266016924993 2.79637628723576 0 0 0
98 1 21.648191651494827 19.073111550475385 2.8161917994198196 -1 0 0
100 1 2.6611843178085457 19.004807791197255 0.046320813161791104 0 0 0
104 1 3.9051671409879187 20.368421835535734 1.361981221437854 0 0 0
106 1 5.487119598873908 18.97364659414003 2.7285264181036903 0 0 0
108 1 8.286723241317757 19.16135494922999 21.64666984110362 0 0 -1
112 1 9.538894272419892 20.378340786969055 1.454992711068089 0 0 0
114 1 11.07756255537978 19.06104401525133 2.589881876183392 0 0 0
116 1 13.777512188365796 18.964311082945564 0.07507794096468642 0 0 0
120 1 14.97669079449975 20.530399253308126 1.4225192171243253 0 0 0
122 1 16.32502823227451 19.07900624576736 2.826589022606502 0 0 0
124 1 19.08033123609141 19.028901438760105 0.15738074721432976 0 0 0
128 1 20.512748617896296 20.475220869906373 1.3163790819970418 0 0 0
129 1 21.686041196836868 0.10156143687228555 5.597511629636545 -1 0 0
132 1 2.674971225859465 2.8951883882690908 5.525620540563489 0 0 0
7 1 4.121748276676049 1.5654278930444874 3.940111549592507 0 0 0
137 1 5.316714188173066 0.06403784289131836 5.366025504875829 0 0 0
140 1 8.184753851140938 2.5370505360825857 5.3337157903050345 0 0 0
15 2 9.615069710550681 1.2948148380594606 4.107837859195559 0 0 0
145 1 10.840469301393739 21.738181567458252 5.591968390655136 0 -1 0
23 1 15.000757700224028 1.4620762970771444 3.863913301675342 0 0 0
148 1 13.744746780244888 2.758239915727689 5.359920124930016 0 0 0
153 1 16.42574224732652 21.743781161586107 5.403271851327436 0 -1 0
31 1 20.500667966983457 1.5632530465255923 4.2071603100048485 0 0 0
156 1 19.093560531532844 2.7855720663931374 5.594340798262024 0 0 0
6 1 1.4180740988818406 4.114826192265719 4.075774165570936 0 0 0
161 1 21.686026680871375 5.533309717521661 5.366503449917931 -1 0 0
169 1 5.450988880376107 5.515339420635101 5.495584507542262 0 0 0
14 1 6.864752605319016 4.0550442943812355 4.057279246836734 0 0 0
22 1 12.182716063645993 4.220743178632874 4.130920859134761 0 0 0
177 1 10.956635577565791 5.4471695393940935 5.538311267530097 0 0 0
30 1 17.860867564767776 4.110947138646239 4.1351156951256645 0 0 0
185 1 16.48225694584799 5.498405390056935 5.547931295171422 0 0 0
164 1 2.7668757094393057 8.158131440074513 5.494910566992142 0 0 0
39 1 4.140575293586077 6.983567522487513 4.1265168101249134 0 0 0
172 1 8.122320387028397 7.913188383231451 5.456822015518928 0 0 0
47 1 9.567138356918123 6.73844900245075 4.070975266903433 0 0 0
55 1 15.23862078496665 6.743801995696183 4.184082671492085 0 0 0
180 2 13.744244244338844 7.987141238172445 5.485449601582909 0 0 0
63 1 20.26690167074409 6.848352962818202 4.045793316816422 0 0 0
188 1 18.913372016469012 8.145956507725126 5.389864929066366 0 0 0
38 1 1.3738671150264457 9.580297374861427 4.164317198715338 0 0 0
193 1 0.039956752076880694 10.815878830430062 5.606658949198159 0 0 0
71 1 4.0113325250448115 12.194255912692187 3.9681282448913757 0 0 0
201 1 5.345805067739698 10.958879908083679 5.35187052148969 0 0 0
46 1 6.969871953356466 9.43180204726183 4.006823452605391 0 0 0
54 1 12.230912213502933 9.496373560402695 4.22749875227871 0 0 0
79 1 9.745393234214065 12.339127792426659 3.76853049689296 0 0 0
209 1 10.743528708599259 11.020164079104104 5.411052247481904 0 0 0
87 1 14.939571498554377 12.091826742963367 3.883198063191319 0 0 0
62 1 17.785188592601724 9.419023358898007 3.9723685228889773 0 0 0
217 1 16.375424801498855 10.846717367940494 5.297241305397813 0 0 0
95 1 20.43607731402283 12.233408789536673 4.104005653094887 0 0 0
70 1 1.191230771156757 14.946182401089343 4.061451221906918 0 0 0
196 1 2.5635732859845475 13.635904472975797 5.389517735755977 0 0 0
78 1 6.814176791021299 14.997266444392702 3.9948319579824125 0 0 0
204 1 8.241869803252847 13.616673788724865 5.324162951784581 0 0 0
86 1 12.318032878385008 15.018518191553122 3.9645197768326135 0 0 0
212 1 13.661875897466576 13.595750096557108 5.271766236602586 0 0 0
94 1 17.734334747442983 14.842769526066904 4.1031943143511995 0 0 0
220 1 19.08468537549774 13.602574137035969 5.521796248432645 0 0 0
225 1 21.695695985980723 16.40662904067264 5.582533762929817 -1 0 0
103 1 4.001937394056178 17.662233014107645 4.145402698454612 0 0 0
233 1 5.445694187866373 16.27602113822569 5.515333581831495 0 0 0
111 1 9.539057156611294 17.84935644867282 4.120176562573217 0 0 0
241 1 10.789695265486184 16.47514317256936 5.426229871025319 0 0 0
119 1 15.04775401918128 17.705980119818708 4.266888465433345 0 0 0
249 1 16.28274353781927 16.24918394760338 5.545572864823476 0 0 0
127 1 20.4404424480783 17.72532210637663 4.300693433517676 0 0 0
102 1 1.1883768153866763 20.52756332291442 4.161230567403421 0 0 0
228 1 2.5647978441334396 19.05670039401086 5.412632113959457 0 0 0
110 1 6.778201549215885 20.50839180184585 4.084125661926458 0 0 0
236 1 8.058606585687928 18.962375507841692 5.462429796824176 0 0 0
118 1 12.348506692172446 20.41153055614761 4.210952777145894 0 0 0
244 1 13.797617948428522 19.153379004247896 5.484201775110021 0 0 0
126 1 17.90279622900041 20.433784402287706 4.112265396476773 0 0 0
252 1 19.209911186453972 19.125926245459244 5.591211104526567 0 0 0
130 1 21.674662173386082 2.7659181500736727 8.13217404585924 -1 0 0
131 1 2.7106679499064166 21.710162443760137 8.066704478353287 0 -1 0
133 2 1.410244640457494 1.5787807848382116 6.909212069816038 0 0 0
138 1 5.419625716888417 2.58419809363807 8.095224529784977 0 0 0
139 1 8.240891639507575 21.597497846760696 7.980816082298895 0 -1 0
141 1 6.83322679188694 1.1451167698590554 6.749689120456957 0 0 0
146 2 10.987152975357915 2.524094989795597 8.10036009045944 0 0 0
149 1 12.393809419827233 1.330111984750766 6.710546227176144 0 0 0
147 1 13.528795394220174 21.728068278117114 8.293603391482653 0 -1 0
154 1 16.402720081630203 2.7515085115468008 8.277044705201098 0 0 0
157 1 17.698677075777603 1.351873528393832 6.892398801046583 0 0 0
155 1 19.05587400013691 21.707764773436146 8.254051273267294 0 -1 0
163 1 2.671244366466794 5.3524025928898995 8.265231459891968 0 0 0
136 1 4.168284221626087 4.194774245067822 6.904104935165594 0 0 0
171 1 8.053775005442326 5.353314302116917 8.084978614205632 0 0 0
144 1 9.506803712666713 3.907535074785336 6.690940599117112 0 0 0
152 1 15.153403420628377 4.010121131447368 6.802853502717421 0 0 0
179 1 13.672580631006245 5.425634110273488 8.212666846619289 0 0 0
160 1 20.34313264464954 4.326153625334437 6.907155252541904 0 0 0
187 1 18.959320282740467 5.563263713946886 8.266338793000072 0 0 0
162 1 21.73205783209203 8.036038244412342 8.212750654301814 -1 0 0
165 1 1.3815556403856812 6.716002568544169 6.8336962602327675 0 0 0
170 2 5.342347398315177 8.18767956071392 8.070217905863633 0 0 0
173 1 6.766259962104208 6.755397383355468 6.837082897086503 0 0 0
178 2 10.806150893668804 8.040459893555663 8.187546908109585 0 0 0
181 1 12.381044202312786 6.808108507575108 6.8974111496001775 0 0 0
186 1 16.270559493520068 8.227135165209985 8.241148172224795 0 0 0
189 1 17.48483914279423 7.052384426920789 6.8338414998318315 0 0 0
195 1 2.469630490658918 10.837379581376688 8.12324723323188 0 0 0
197 1 1.313371239795529 12.225021655379722 6.781889731235707 0 0 0
168 1 4.0722187747831375 9.54591819392774 6.810582657290034 0 0 0
203 1 8.224072141803893 10.776400771637457 8.33879749681385 0 0 0
205 1 6.886022526889673 12.176000594023126 6.729001523232949 0 0 0
176 1 9.39048215232064 9.530163304328418 6.782004173176887 0 0 0
213 1 12.157388640499494 12.245142815122788 6.77430801040282 0 0 0
184 1 14.949062895999775 9.527326126747441 6.840062298431067 0 0 0
211 1 13.456772793747103 10.817328658132094 8.224001103315302 0 0 0
221 1 17.71836081997144 12.17266242003695 6.798051742053282 0 0 0
192 1 20.340102374822894 9.462772026591603 6.832119522420117 0 0 0
219 1 19.00146826069715 10.920674126576902 8.121865814061803 0 0 0
194 1 0.08408503460900936 13.594882236874954 8.225798964901076 0 0 0
200 1 3.976316764320535 14.743661714502148 6.828955150520596 0 0 0
202 1 5.388962112369068 13.457906770415418 8.04828916800304 0 0 0
208 1 9.592255463396434 14.968522767409379 6.690522537482577 0 0 0
210 1 10.790027665468006 13.57250611202822 8.112860689283227 0 0 0
216 1 14.897447712001162 14.70831468005743 6.692475993025035 0 0 0
218 1 16.147360337323487 13.471077398202944 8.039866233301343 0 0 0
224 1 20.34867019475794 15.019599078668062 6.87684409011179 0 0 0
227 1 2.848926324619552 16.284221102237208 8.38237071126512 0 0 0
229 1 1.3353540792316856 17.80466790412566 6.918831184040549 0 0 0
235 1 8.120005867705597 16.327205982151533 8.106188644981577 0 0 0
237 1 6.770859349570807 17.624946628344265 6.777967043874367 0 0 0
245 1 12.314119706266625 17.70693041332313 6.779157861133842 0 0 0
243 1 13.591848107858597 16.162727799019393 8.126370070581265 0 0 0
253 1 17.592210598540767 17.699288236965252 6.901138337808061 0 0 0
251 1 18.715960656774957 16.218308781690414 8.228654461318575 0 0 0
226 1 21.66049901987579 19.12506144358949 8.381697018415688 -1 0 0
232 1 4.06875619107575 20.320205179780213 6.761885428294476 0 0 0
234 2 5.446383430978424 19.063971019299494 8.286278827006509 0 0 0
240 1 9.619996033226284 20.17041545288493 6.764635588850979 0 0 0
242 1 11.03088355804251 18.960223271280306 8.177935084423163 0 0 0
248 1 14.967042323610242 20.594021472160296 6.8484508715263726 0 0 0
250 1 16.258114650848057 19.1733792412214 8.14547675557436 0 0 0
256 1 20.476398532298067 20.469495671130613 6.932036110199246 0 0 0
257 1 21.65364717074714 0.016692664451672248 10.877046345170793 -1 0 0
260 1 2.6682824140166748 2.7321005380458683 10.968486181076672 0 0 0
261 1 1.4130639690128952 1.3479799586698025 12.199934048764115 0 0 0
135 1 4.001739681162506 1.4148821494912376 9.464326251403302 0 0 0
265 1 5.337727005481054 21.639784542254723 10.85035472722257 0 -1 0
268 1 8.145587473449204 2.5797188656258063 10.80474626696392 0 0 0
269 1 6.739200988399755 1.3570557974922026 12.072354693830594 0 0 0
143 1 9.476884636607497 1.2212166315361686 9.334010108119642 0 0 0
273 1 10.849147726016248 0.1298436342978896 10.904558167404158 0 0 0
277 1 12.192083978302268 1.3569049413231942 12.271481416784697 0 0 0
151 1 14.965815803420314 1.3288337234184162 9.698382477898107 0 0 0
276 1 13.598848161691004 2.672253372048371 10.928835862035104 0 0 0
281 1 16.289754185070276 0.06359885027165248 11.102946034986903 0 0 0
285 1 17.70437933552046 1.4910280250223429 12.403565635460623 0 0 0
159 1 20.29869319510898 1.5244658022896365 9.444194071656858 0 0 0
284 1 18.950609435037027 2.7473020536311696 10.997908946807405 0 0 0
134 1 1.2844959913167702 3.990636239144167 9.518846010775649 0 0 0
289 1 21.589005175482225 5.0866714458352655 10.933520441008783 -1 0 0
264 1 4.088734352441161 4.0066109300037995 12.143855583690954 0 0 0
297 1 5.499492406365895 5.492316792935756 10.727866026529083 0 0 0
142 1 6.764683255223793 4.0081815130606495 9.359466248061073 0 0 0
150 1 12.244466042019027 3.884537249655026 9.503366791102367 0 0 0
272 1 9.520885594655102 4.024150256613654 12.21131018710001 0 0 0
305 1 10.874057104253552 5.51374662510589 10.771649145006961 0 0 0
280 1 14.665009251022179 4.1469393858233055 12.295386301084491 0 0 0
158 1 17.759821645356315 4.261243490464965 9.473501432410883 0 0 0
313 1 16.25989589793229 5.395098413959895 10.85821810643291 0 0 0
288 1 20.19015760054577 3.9854794263482507 12.369904216804864 0 0 0
292 1 2.651098810391017 8.09038550578186 11.036047939247853 0 0 0
293 1 1.2630800296762987 6.470246310127527 12.292651501916342 0 0 0
167 1 3.9784856458076208 6.824928953987464 9.538889379039519 0 0 0
300 1 8.214625978529549 8.118311460033034 10.806146297816671 0 0 0
301 1 6.79719429880994 6.917714356745561 12.134154239672934 0 0 0
175 1 9.422440747624758 6.596280149643445 9.388925948824504 0 0 0
309 1 12.002695731130505 6.798244410269435 12.344045169582477 0 0 0
183 1 14.867610604068284 6.859653446455472 9.447380028937808 0 0 0
308 1 13.42030557113663 8.212210754926145 10.930063346924431 0 0 0
317 1 17.697061798687905 6.830077359710166 12.162935316573943 0 0 0
191 1 20.335577885552716 6.8123180655276165 9.732295200149311 0 0 0
316 1 19.070636520339775 8.261126028061117 11.003028609375715 0 0 0
166 1 1.26397817203185 9.41046455740206 9.61397997214964 0 0 0
321 1 21.650311305560574 10.79078742833668 10.92176456649865 -1 0 0
325 1 1.3263785175968272 12.23072389787583 12.223761661067874 0 0 0
199 1 3.9292788819261006 12.16023195868885 9.321192615113036 0 0 0
296 1 3.993419638033019 9.429637678368517 12.192385827083402 0 0 0
329 1 5.331157806651743 10.869539404335978 10.806535555397463 0 0 0
174 1 6.720926478534008 9.457047667286794 9.496776547026982 0 0 0
333 1 6.616882096204657 12.33295773782757 12.064503966563725 0 0 0
182 1 12.050763640216877 9.440959390861401 9.49544950279702 0 0 0
207 1 9.550427459769736 12.28621697103105 9.738532488014396 0 0 0
304 1 9.303435413540194 9.581091469450694 12.32114091347666 0 0 0
337 1 10.8817721568159 10.757450759163573 11.065465109071154 0 0 0
341 2 12.287516000866455 12.241128966252507 12.369460733576437 0 0 0
215 1 14.875541494854321 12.14916427042486 9.62492428857736 0 0 0
312 1 14.926415376851413 9.555774870454767 12.287235642044234 0 0 0
190 1 17.64511514312324 9.565795106455402 9.67169958474833 0 0 0
345 1 16.254389084186325 10.913008231317706 11.01767479353848 0 0 0
349 1 17.606796380666314 12.314921573718433 12.237012723412269 0 0 0
223 1 20.468287654459647 12.078736026690862 9.632360293682018 0 0 0
320 1 20.307279253343697 9.50621152993291 12.294752685472314 0 0 0
198 2 1.3765695806503104 15.066822488349048 9.583705627080569 0 0 0
324 1 2.729875496351364 13.459131255043825 10.942287962691326 0 0 0
328 1 3.984702490988041 14.903297295890553 12.341413247671559 0 0 0
206 1 6.7323099715712384 14.840240151673434 9.423522450366603 0 0 0
332 1 8.059717688354993 13.726721460504418 10.856835541753869 0 0 0
214 1 12.185844690178335 14.865517515891375 9.486547161429755 0 0 0
336 1 9.405524952674108 15.012900383867592 12.254767251604083 0 0 0
340 1 13.473705425921489 13.58737662504808 10.968251680182355 0 0 0
344 1 14.861485039894092 14.946526913799037 12.256926011466527 0 0 0
222 1 17.50582010910663 14.867080252123634 9.51462925778302 0 0 0
348 1 19.05783784858161 13.495224477529762 10.908321758076392 0 0 0
352 1 20.339596183793176 14.929652954883913 12.20234715872857 0 0 0
353 1 21.74259303011641 16.326705096770045 10.785368120493487 -1 0 0
357 1 1.1439124295786836 17.529797795211792 12.422751758345134 0 0 0
231 2 4.192004056176443 17.747310949005062 9.72587960943638 0 0 0
361 1 5.464166036411674 16.087138402443827 10.946160809512872 0 0 0
365 1 6.71738548610184 17.58090834877441 12.291444931313965 0 0 0
239 1 9.485946902526809 17.701401515278086 9.343842233034376 0 0 0
369 1 10.777894199865635 16.395462246707936 10.715409641913258 0 0 0
373 1 12.193771573420946 17.688089740492767 12.132917646239141 0 0 0
247 1 14.898942813403362 17.78714946474024 9.345207276184405 0 0 0
377 1 16.146423734412846 16.24904941178423 10.752773621309956 0 0 0
381 1 17.513008784051696 17.633288728207695 12.27494538275171 0 0 0
255 1 20.126531517710927 17.579720276742822 9.613322109258739 0 0 0
230 2 1.4257838385314299 20.37430052270072 9.691789138572245 0 0 0
356 1 2.577907627289785 18.85297989224294 11.079168689836111 0 0 0
360 1 4.163399110585812 20.268652757640083 12.256139371997822 0 0 0
238 1 6.950305109625025 20.461662601225147 9.386609482630403 0 0 0
364 1 8.142288188857902 19.093550333704357 10.840878679399399 0 0 0
246 1 12.184010592519693 20.31639231145169 9.651507825094564 0 0 0
368 1 9.368050922889587 20.479494924625207 12.285807751624903 0 0 0
372 1 13.602018102228394 19.0481013723642 10.850207917451586 0 0 0
376 1 15.003911132546003 20.30720986495487 12.245623108137135 0 0 0
254 1 17.463884445607736 20.574326781210733 9.502803044490737 0 0 0
380 1 18.8102071170502 19.12774242076882 10.894926155857537 0 0 0
384 1 20.196489109138895 20.45286492117177 12.18034496059248 0 0 0
258 1 21.73120099109224 2.4967728179866975 13.54261683253645 -1 0 0
259 1 2.833372674357875 21.68605343940359 13.370610646079342 0 -1 0
263 1 4.3088935167475535 1.172756841948544 14.660819948445134 0 0 0
266 1 5.415709521793853 2.71601796843987 13.527693925080516 0 0 0
267 2 8.09059635187211 0.19830541791258155 13.644211154693712 0 0 0
271 1 9.601928287348425 1.3829763360514566 14.920449626158186 0 0 0
274 1 10.810762825744725 2.708290732448966 13.535213343057919 0 0 0
275 1 13.470707233854192 21.697391161363733 13.643434042809535 0 -1 0
279 1 14.947622424416764 1.3673227265697696 14.929465870885013 0 0 0
282 1 16.225357102799705 2.944277143081207 13.624803542941065 0 0 0
283 1 18.91160097640512 21.706695899954816 13.617602658067673 0 -1 0
287 1 20.405824661560704 1.2651954080384613 15.067703455747704 0 0 0
262 1 1.308161549724055 4.0268808562020855 14.851211335112811 0 0 0
291 1 2.7636855381275782 5.394857016469329 13.550490828654272 0 0 0
270 2 6.862704961467038 4.038338621388288 14.826416554180211 0 0 0
299 1 8.150444161685286 5.452241933746779 13.502417706854029 0 0 0
278 1 12.176351942175286 4.037539752963624 14.888873786609613 0 0 0
307 1 13.319094143866213 5.461388342370592 13.668788203990761 0 0 0
286 1 17.600764125861698 4.1436479710048495 15.163395563734563 0 0 0
315 1 18.892319105583923 5.381804908477784 13.595201153609176 0 0 0
290 1 0.02998985628135393 8.016128112082859 13.581468440040783 0 0 0
295 1 4.022729743045836 6.973586910562966 14.833977445766115 0 0 0
298 1 5.591406261153596 8.138123228963298 13.548558431769761 0 0 0
303 1 9.387672925394389 6.890422306747361 14.844812536328739 0 0 0
306 1 10.702866043235057 8.224098062655512 13.65698532896568 0 0 0
311 1 14.939752178754782 6.767170992061907 14.860188102663585 0 0 0
314 1 16.290477194790178 8.162359975799788 13.584695644148278 0 0 0
319 1 20.29022319448512 6.7787737431826685 14.77729712865117 0 0 0
294 1 1.3341323744000262 9.499002160164721 14.953018036118545 0 0 0
323 1 2.5803913788315307 10.833645934347034 13.448352747482929 0 0 0
327 1 4.059574759835218 12.122685453755896 14.888079379891737 0 0 0
302 1 6.722176736651356 9.699689331317725 15.064798066990502 0 0 0
331 1 7.905515469403414 11.08503154512839 13.53979923762803 0 0 0
310 1 12.151757077818743 9.518974702237408 14.90522468697826 0 0 0
335 1 9.435304444809278 12.295303413672109 14.858722710831804 0 0 0
339 1 13.644439397592544 10.84672607597809 13.566324075022772 0 0 0
343 1 14.966914339042214 12.250506857168494 14.940882835086093 0 0 0
318 1 17.619011465461956 9.5611914324538 14.997523339058578 0 0 0
347 1 18.970080447578447 10.941112538993732 13.606702035818913 0 0 0
351 1 20.511427394015424 12.178306402452884 14.83249828774047 0 0 0
322 1 0.0016084854767816296 13.74866892615678 13.480087220373065 0 0 0
326 1 1.4291785265499786 14.954911685210226 15.027537236256375 0 0 0
330 1 5.304723776016573 13.572138815284868 13.716010599338729 0 0 0
334 1 6.692150217222616 14.920478146088744 15.176353077987054 0 0 0
338 1 10.938227548026964 13.765329057426344 13.687206789435042 0 0 0
342 1 12.227688894207455 15.08201179204185 15.008378251115618 0 0 0
346 1 16.326056749018917 13.67782326782119 13.491341261126173 0 0 0
350 1 17.73773750986868 14.954861200498724 14.826055495541427 0 0 0
355 1 2.7900099792236275 16.283861457620574 13.688906650645182 0 0 0
359 1 4.20754729786794 17.651992404798087 15.002467846894719 0 0 0
363 1 8.006207627957952 16.19164025851837 13.74600896601793 0 0 0
367 1 9.585670769960618 17.753038939941508 14.848911681221452 0 0 0
371 1 13.474710387208404 16.40454621037248 13.569364130127463 0 0 0
375 1 14.91253809094693 17.668646073386157 14.876248605415006 0 0 0
379 1 18.990780098392428 16.26267856791442 13.5612529311929 0 0 0
383 1 20.332679510246617 17.526653234311123 15.045221899615155 0 0 0
354 1 21.51832703750483 19.007104551756793 13.570440116205216 -1 0 0
358 1 1.5020319586733313 20.364986430275373 14.840125203005888 0 0 0
362 1 5.565466918792917 19.057465120742798 13.633697311759459 0 0 0
366 1 6.802523625412812 20.435389777467623 14.897490315866435 0 0 0
370 1 10.913171722116061 19.11640535912527 13.443084570578247 0 0 0
374 1 12.255711887774922 20.26041953614415 15.115709164719917 0 0 0
378 1 16.27602556148529 18.932871406280093 13.751073879859133 0 0 0
382 1 17.559308444975585 20.414117417567866 14.974556706245945 0 0 0
385 1 0.047523470417678654 21.50096205877571 16.366117871379934 0 -1 0
388 1 2.892059385553508 2.6153150131652243 16.141826291437553 0 0 0
389 1 1.3046515442236837 1.3641488266434303 17.45822562299212 0 0 0
393 1 5.508160654676469 0.00856020121430853 16.311288414706308 0 0 0
396 1 8.079179982430075 2.7553077337197878 16.260000325463906 0 0 0
397 1 6.810349122656767 1.218768295039972 17.650878599749987 0 0 0
401 1 10.960879697780676 0.22442572608705424 16.42047046943464 0 0 0
405 1 12.326636396597294 1.485555151222556 17.737354096761273 0 0 0
404 1 13.599466292483067 2.749562131410407 16.240719587191375 0 0 0
409 1 16.245472073608358 0.009813747614681586 16.366816620150743 0 0 0
413 1 17.605453578918716 1.2837762110422792 17.784961607363815 0 0 0
412 1 18.94936421817608 2.576609464593184 16.246863849286633 0 0 0
417 1 21.607843194516246 5.286613602741891 16.114409520455546 -1 0 0
392 1 4.202655112020802 4.094182585081603 17.53962353595024 0 0 0
425 1 5.480803337327883 5.4676960588220735 16.159574725532643 0 0 0
400 1 9.514537220741817 4.1568696381703 17.601136518279294 0 0 0
433 1 10.89389876179754 5.597292657261878 16.25205535531798 0 0 0
408 2 14.997461750588906 4.193182160501758 17.732650454486112 0 0 0
441 1 16.205357614468927 5.542847702177466 16.417314459609308 0 0 0
416 1 20.295750712069633 3.887787702694581 17.61186024722779 0 0 0
420 2 2.529527926528936 8.112169227736112 16.39926677720654 0 0 0
421 1 1.1337279473430681 6.644131522029411 17.66982933800296 0 0 0
428 1 8.157101730673363 8.203827565345534 16.32118914213991 0 0 0
429 1 6.80788851659108 6.921016942765265 17.507112433338524 0 0 0
437 2 12.329578713200311 6.955117500282363 17.640051450602442 0 0 0
436 1 13.74474128561516 8.188320259170204 16.28885604953263 0 0 0
445 1 17.726496904443742 6.781570511745933 17.58785933280554 0 0 0
444 1 19.021133361726505 8.22130692544561 16.157647983166253 0 0 0
449 1 0.025122472122599337 10.773364541373144 16.203167732082687 0 0 0
453 1 1.3394380854102734 12.100797176305049 17.666059012961277 0 0 0
424 1 4.013704922272212 9.537538392835922 17.557718617337876 0 0 0
457 1 5.338497639957567 10.989858896352436 16.40465550159309 0 0 0
461 1 6.864812580967737 12.327589734303551 17.705069538051546 0 0 0
432 1 9.523274837134883 9.56969504257327 17.743972054646783 0 0 0
465 1 10.786166814726254 10.830076450790267 16.26995447780855 0 0 0
469 1 12.204767407329186 12.29514324702303 17.57025650414808 0 0 0
440 1 15.104971435554091 9.475906675954814 17.8004835300984 0 0 0
473 1 16.410032824480055 10.864911786097334 16.332246072278313 0 0 0
477 1 17.784626416792765 12.243982650096472 17.73246840504186 0 0 0
448 1 20.3723987350086 9.335921703503557 17.619762980009288 0 0 0
452 1 2.708740835655876 13.625642726308058 16.240704497228382 0 0 0
456 1 4.023257262067606 14.991199239851554 17.70285847793773 0 0 0
460 1 8.22644690415478 13.654762270970435 16.361344084572337 0 0 0
464 1 9.369072479300984 14.979561482436191 17.923529322622972 0 0 0
468 1 13.592946359607232 13.74545278394006 16.197599363766233 0 0 0
472 1 15.069598311100497 14.957439874315648 17.64432537961691 0 0 0
476 1 19.05877279038443 13.648460437217418 16.263318234093187 0 0 0
480 1 20.32992143898182 14.791037885221986 17.69455805852383 0 0 0
481 1 21.701899242113132 16.25199938251017 16.385769983400017 -1 0 0
485 1 1.3499125805495338 17.678944281755065 17.59523411344461 0 0 0
489 1 5.475699514165656 16.394502092948983 16.520019461895256 0 0 0
493 1 6.80675059001169 17.787573944340092 17.735635845097686 0 0 0
497 1 10.727468678031396 16.301426432752635 16.447288336500026 0 0 0
501 1 12.319723161055975 17.56463087808312 17.772146275778958 0 0 0
505 1 16.232980562088866 16.275576097240975 16.197265905891797 0 0 0
509 1 17.465993552432323 17.638498478200468 17.62560101355613 0 0 0
484 1 2.914427421830808 19.058566420954165 16.38064720904245 0 0 0