LAMMPS data file via write_data, version 29 Aug 2024, timestep = 10000000, units = metal

512 atoms
2 atom types

0 21.79363031 xlo xhi
0 21.79363031 ylo yhi
0 21.79363031 zlo zhi

Masses

1 28.0855
2 12.011

Atoms # atomic

5 1 1.3571898600924925 1.3615134957348203 1.296475427708722 0 0 0
2 1 21.793578116944555 2.684290450393168 2.680371677857397 -1 0 0
3 1 2.781164333342068 0.019834369212592406 2.69497296886049 0 0 0
10 1 5.398489624773205 2.488690103027588 2.8255646401537433 0 0 0
13 1 6.8334617153143515 1.42632645946013 1.2744163022145278 0 0 0
12 1 8.05175253575405 2.838801873956763 0.013117171188934407 0 0 0
18 1 10.96576453096399 2.636349123183008 2.6446347934133 0 0 0
21 1 12.363279080352987 1.3189154411223953 1.3128153257071244 0 0 0
20 1 13.761348368920398 2.7864384993891878 21.781673922657962 0 0 -1
29 1 17.678168868137206 1.5219508289348447 1.489573488306381 0 0 0
26 1 16.1621028174291 2.9091279429992034 2.7481964843646765 0 0 0
25 1 16.266707653933043 0.06785043681919649 0.18833319597539955 0 0 0
27 1 18.98251098198656 0.23297946536059794 2.949985943520107 0 0 0
35 1 2.6400280730784496 5.416762652986298 2.630583379260881 0 0 0
8 1 3.9053139464060136 3.913775368259292 1.4565648104890934 0 0 0
41 1 5.282082435470188 5.461439063804219 0.03536954380547641 0 0 0
43 1 8.215601129392791 5.477554090428436 2.6853190987210214 0 0 0
16 1 9.531662040000894 4.045783164400292 1.4090583495560667 0 0 0
49 1 10.850476233742782 5.579366198218807 0.12025168163956934 0 0 0
24 1 15.134599994603235 4.336866926612743 1.229563699013722 0 0 0
51 1 13.66496941742686 5.670701229707177 2.716371411476334 0 0 0
32 1 20.595963389407114 3.985513757648985 1.100632670834543 0 0 0
59 1 19.39527211213618 5.607020745217585 2.3855022915722057 0 0 0
37 1 1.195375194911514 6.756205067625122 1.335972645554518 0 0 0
36 1 2.568956310258208 8.086352757217755 21.54312057040108 0 0 -1
42 1 5.4949776081932145 7.955003954280472 2.709227233324946 0 0 0
40 1 3.86333835549393 9.333839172912157 1.409214097716072 0 0 0
45 1 6.883560048523959 6.682304214781565 1.1348072581289814 0 0 0
44 1 8.262350801053415 8.060196957263134 21.595497043058902 0 0 -1
50 1 10.92855374497933 8.195023019561091 2.814472224858914 0 0 0
53 1 12.247144754564838 6.82773946378191 1.3527530493332554 0 0 0
61 1 17.813720834093775 6.672110024708047 1.075916633494977 0 0 0
58 1 16.345249467969225 8.233179832039804 2.6019966916959243 0 0 0
34 2 21.661220059526993 8.141804488511347 2.7637790442740298 -1 0 0
64 1 20.43234799617086 9.45099688012449 1.2613086542150773 0 0 0
67 1 2.5911305916936525 10.909875423472547 2.6233404845116928 0 0 0
69 1 1.380997091342272 12.377844075070191 1.2177867388069752 0 0 0
75 1 8.27975828679694 10.734317395184622 2.7239370715566 0 0 0
77 1 6.900979973714734 12.084339914681594 1.362968900392744 0 0 0
48 1 9.450504903417489 9.28406486444177 1.3376671773508382 0 0 0
81 1 10.849356360300105 10.913538091405185 0.08739316866813951 0 0 0
56 1 14.791476373652564 9.541035360712453 1.1824222917995968 0 0 0
83 1 13.428135594440533 10.743308434493633 2.769911887542908 0 0 0
93 1 17.454411638623846 12.306871996449898 1.3756864389367893 0 0 0
91 1 18.85920735389135 10.771080456030479 2.408830474689886 0 0 0
65 1 21.724681152305998 11.05119412557574 0.030774481844257906 -1 0 0
66 1 21.62344424628827 13.52397366840057 2.5214362430198825 -1 0 0
72 1 4.034529466922071 14.86225699897684 1.439000630340379 0 0 0
74 1 5.35795813699853 13.446907881526396 2.861650525909894 0 0 0
85 1 12.325544582657077 12.253427188285242 1.3505205541288205 0 0 0
80 1 9.579711076499535 14.924374511989097 1.2344917909355062 0 0 0
82 1 10.909391817000843 13.645876598379386 2.6695349856434456 0 0 0
88 1 15.061703638160662 15.102790277298821 1.5464064317638435 0 0 0
84 1 13.81353655772594 13.678935078925154 21.742807096896268 0 0 -1
90 1 16.208357116422132 13.64199091957152 2.8445769540859582 0 0 0
96 1 20.575857723429344 15.138351398229677 1.220615655754011 0 0 0
101 1 1.1966004746309642 17.8863047032294 1.4844762171688686 0 0 0
99 2 2.4625229589365283 16.417721251054733 2.795645708506794 0 0 0
109 1 6.680715709035693 17.675097315087438 1.5887656978524645 0 0 0
107 1 8.046394415438371 16.106312913749335 2.7202007564914363 0 0 0
117 1 12.205033952228433 17.82836922345654 1.4940497437555278 0 0 0
115 1 13.573737085524376 16.5118468372596 2.826505643713312 0 0 0
125 1 17.60941859695229 17.88018145433412 1.6024052453840187 0 0 0
121 1 16.350103151222957 16.498621284913952 0.2516373827078926 0 0 0
123 1 19.03782213810919 16.18776399639522 2.8398502074046315 0 0 0
100 1 2.7440299036526805 18.98343746770189 0.03406490206012336 0 0 0
106 1 5.2376370999013355 18.97064672116129 3.112959030802999 0 0 0
104 1 4.268531238504053 20.36914856162947 1.4553137161887084 0 0 0
9 1 5.532578614922414 21.706772811708635 0.10806726120474153 0 -1 0
11 1 8.315413042596965 21.7582771830359 2.763595130206886 0 -1 0
112 1 9.516531926698365 20.511414200415132 1.2412563088013702 0 0 0
114 1 10.81000882640045 19.109323736832756 2.787363695852577 0 0 0
19 1 13.733713043131779 0.17126279108900988 2.8057971893317095 0 0 0
120 1 14.956207437862984 20.533325043671496 1.5045874074395011 0 0 0
122 1 16.336475319247 19.4546699293159 2.904522482200931 0 0 0
98 1 21.745945311223483 19.251174907270062 2.7875391045348037 -1 0 0
128 2 20.421284496108356 20.65043481264237 1.3542517336099382 0 0 0
124 1 19.086652675480106 19.22421862363937 0.2396192842139797 0 0 0
132 1 2.74030087996535 2.902814604328588 5.6064743971804525 0 0 0
7 1 3.992284129340091 1.4586734667902477 4.328561109229314 0 0 0
140 1 8.197330507164684 2.5666752748300605 5.2236786133092155 0 0 0
15 1 9.63781469072373 1.2357649278580998 3.9574060506745337 0 0 0
23 1 15.101970570618288 1.530857574185145 4.171702588156905 0 0 0
148 1 13.712996596902194 2.722434037048875 5.42648586674736 0 0 0
153 1 16.55172451760151 0.24285483359769863 5.664877568840375 0 0 0
31 1 20.555588773003787 1.5714732865636072 4.304029588119187 0 0 0
156 1 19.027128717482494 2.7487351187911724 5.354102975488024 0 0 0
6 1 1.286714667484324 4.1427814849491345 4.0707390165397115 0 0 0
161 1 21.6974664712028 5.2344296604818545 5.56101451189514 -1 0 0
169 1 5.576184193233225 5.521122808081822 5.308904838612459 0 0 0
14 2 6.962353254888092 3.9058933372636484 4.001333903638103 0 0 0
177 1 10.951677868135814 5.354216852452147 5.526293616881862 0 0 0
22 1 12.37213040802693 4.212708373503799 4.07461564205602 0 0 0
30 1 17.77128286016413 4.137495217972095 3.6792647172498625 0 0 0
185 1 16.35405715945839 5.472610003369534 5.2782909043395865 0 0 0
164 1 2.5577386278461955 8.223546190979846 5.338673358024142 0 0 0
38 1 1.2349341995947813 9.57651027691809 3.9629121553368227 0 0 0
39 1 3.8544134459325727 6.898694301404042 4.091585987705639 0 0 0
172 1 8.222357779598209 8.25573025063573 5.4037592150575735 0 0 0
47 1 9.605688373976463 6.793028299627585 4.183695066829609 0 0 0
55 1 15.061907826550282 6.929740142302963 4.03474905187213 0 0 0
180 1 13.478156730271776 8.136500079406812 5.621557717823423 0 0 0
188 1 18.997967860646973 8.318198067975404 5.324207100364645 0 0 0
63 1 20.41742031300983 6.82352280296737 4.101600184694515 0 0 0
201 1 5.392104735186822 10.877726542810713 5.269490724390544 0 0 0
71 1 3.866922394516017 12.155809477382585 4.0854308436756765 0 0 0
46 1 6.661423896345066 9.580563238535833 3.9014337221857147 0 0 0
209 1 10.852566331362567 10.93247270993722 5.800639170757438 0 0 0
54 1 12.056167224635626 9.40467095775379 4.1442995035016725 0 0 0
79 1 9.690397725167152 12.163303798376862 4.12913594398115 0 0 0
87 1 14.79338074263086 12.207205305747928 4.0224504001919525 0 0 0
62 2 17.647673186097855 9.704811365291341 3.960697074154902 0 0 0
217 1 16.23577358303088 11.048974515671107 5.437181289218571 0 0 0
193 1 21.46576969434545 10.631469440079167 5.37400326211943 -1 0 0
95 1 20.07501184299614 12.332889333009165 4.1088696563290075 0 0 0
70 1 1.1906834143301068 14.774280686454903 3.997055651363467 0 0 0
196 1 2.6029738886329015 13.455702523649133 5.453534693518796 0 0 0
78 1 6.600688505883941 14.746050347434927 4.235020407830973 0 0 0
204 1 8.111261984606614 13.41256860817147 5.346172230227527 0 0 0
86 1 12.25785077241354 15.021334687221223 4.185322329888986 0 0 0
212 1 13.806145855280903 13.782246966791009 5.768051400269027 0 0 0
94 1 17.70255933039297 14.880648664103363 4.203026234447705 0 0 0
220 1 19.071271777816264 13.81969989185707 5.581927237318533 0 0 0
225 1 0.07732713792346205 16.255457457270065 5.5665031917436725 0 0 0
103 1 3.872717893957144 17.527041649677937 4.223017307530903 0 0 0
233 1 5.170142012008956 15.992677492430344 5.570291365568703 0 0 0
111 1 9.407473587056797 17.75626139814314 4.065609481485362 0 0 0
241 1 10.890861121892348 16.282742960374257 5.572028719716345 0 0 0
119 1 15.077616295841597 18.063310088433838 4.100452290504057 0 0 0
249 1 16.38811646655087 16.54120428035696 5.209266304715477 0 0 0
127 1 20.536298817832797 17.59992740343118 3.984590325328085 0 0 0
129 1 0.19176716603948307 0.18065659325569472 5.4870809282346364 0 0 0
228 1 2.634608359439338 18.978778797756124 5.655569958802171 0 0 0
102 1 1.4558179236575193 20.599337357626155 4.181725022482116 0 0 0
137 1 5.475351199843084 0.013047162925051481 5.471472807169219 0 0 0
236 1 8.302578416838434 19.07086304242252 5.558661406183484 0 0 0
110 1 6.78550913171971 20.495502704558774 4.121870095745715 0 0 0
145 1 10.927369119979405 21.542076202951424 5.283429198683645 0 -1 0
118 1 12.380560583368874 20.26278520462936 3.9879509674545526 0 0 0
244 1 13.65341543217923 19.047102096354333 5.570267971968267 0 0 0
126 1 17.906944500660643 20.651038669867027 4.308135729047004 0 0 0
252 1 19.349480270542866 19.120016833439887 5.265044517113259 0 0 0
133 1 1.689149064256975 1.3321729968440066 6.841583124845327 0 0 0
131 1 2.874314910615661 21.762981886037167 8.399169861352132 0 -1 0
138 1 5.436247775445683 2.7897962448586267 8.192090658741405 0 0 0
141 1 6.71413531738537 1.392642755004686 6.909342681336618 0 0 0
149 1 12.124971548429809 1.2728571375364133 6.632714076278161 0 0 0
146 1 10.784985547568342 2.5073831121863304 8.17399654871074 0 0 0
147 1 13.549544916920023 0.06954557180473105 8.18533390538406 0 0 0
157 1 18.03957979292223 1.4526233079357003 6.92947220541509 0 0 0
154 1 16.292016041726654 2.487161943845695 8.048755407516715 0 0 0
130 1 0.0916961194550484 2.5519639953163216 8.34506803978943 0 0 0
163 1 2.4491831983474146 5.600914908937509 8.25789053149379 0 0 0
136 1 4.127308360984492 4.371282990808153 6.874947993726665 0 0 0
171 1 8.198489592851569 5.355594093521088 8.018795166383768 0 0 0
144 1 9.592370839445344 3.824030973063241 6.621140602661596 0 0 0
152 1 15.00248632584083 4.028072082830009 6.666297817070265 0 0 0
179 1 13.9618488653902 5.494508556127379 8.22723347101284 0 0 0
187 1 18.906118822323588 5.416755202584514 8.12875289075993 0 0 0
160 1 20.33347002023312 3.8857306746191056 6.992209574980722 0 0 0
165 1 1.2964240254931394 6.829917404524584 6.802883802962855 0 0 0
162 1 0.021448567848563607 8.05329830183386 8.08923916791481 0 0 0
166 1 1.2377335359858306 9.576212756592653 9.560080490492945 0 0 0
170 1 5.300259425850416 8.394370475625564 8.06056850919324 0 0 0
173 1 6.652169969795797 7.111616977441157 6.757209516977522 0 0 0
178 1 10.99166007349294 8.20820762446781 8.431787097644186 0 0 0
181 1 12.102131276794436 6.814446148332928 6.982247717925224 0 0 0
186 1 16.4519526581236 8.238279891177326 8.092636457041074 0 0 0
189 1 17.687436982453953 6.93202757712481 6.704841503987581 0 0 0
192 1 20.371697674670703 9.300852092393416 6.7828007426616175 0 0 0
195 1 2.550030439928498 10.853940092881821 8.225759344235168 0 0 0
197 1 1.19342418434676 12.226686848477046 6.632103411442552 0 0 0
168 1 3.866677320382116 9.661550651032377 6.635794949430335 0 0 0
199 1 4.097291859582885 12.00521802009338 9.443683936128592 0 0 0
203 1 7.968246914272129 10.831715428207563 8.072761193745777 0 0 0
205 1 6.73440750567002 12.188757109276981 6.75280920546595 0 0 0
176 1 9.440778097386918 9.44565847829704 6.9608725668212195 0 0 0
213 1 12.316721761660157 12.32678602617297 6.959934756233242 0 0 0
184 1 14.974093809891777 9.571251873175887 6.781355626168898 0 0 0
211 1 13.72471370869736 10.944144927068352 8.31251200747712 0 0 0
221 1 17.64662551822574 12.301321276010125 6.725900654934439 0 0 0
219 1 19.166824772714584 10.89537288563544 8.007545790399426 0 0 0
200 1 3.9278575001582556 14.698035573787786 6.937960968342804 0 0 0
202 1 5.421577793657969 13.445294468584912 8.260586017369985 0 0 0
208 1 9.436666305994292 14.836270619977183 6.667367083276448 0 0 0
210 1 11.027575212457242 13.681854118822963 8.377285418879746 0 0 0
216 1 15.123749424283387 15.424002381913736 6.895525899507082 0 0 0
218 1 16.422051847197228 13.71376149761492 8.141729833962204 0 0 0
194 2 0.0014718533446642732 13.518814782369239 8.159121614610962 0 0 0
224 1 20.422710853185702 15.143379511244273 6.857889073843441 0 0 0
229 1 1.319579475663483 17.585189773619962 6.895357891917092 0 0 0
227 1 2.7323616202278096 16.23491338792179 8.161674177872191 0 0 0
235 1 8.091234191902593 16.018344794002466 7.925415531325602 0 0 0
237 1 6.752361061837034 17.449053103560235 6.83038615691392 0 0 0
245 1 12.330321605771662 17.677470102527533 6.9032606047068885 0 0 0
243 1 13.676135009485302 16.57723958040915 8.392328607875049 0 0 0
253 1 17.791246185132014 17.815988526224064 6.5981805010429 0 0 0
251 2 18.992940595175664 16.596475154630657 8.03968953626199 0 0 0
230 1 1.630394918653252 20.3472507249352 9.591677529820963 0 0 0
234 1 5.551432238875508 18.91802334813498 8.060826173008541 0 0 0
232 1 4.04510483809562 20.387885017771033 6.8254057120516896 0 0 0
139 1 7.940667161743234 21.64067283829373 8.171623232175216 0 -1 0
240 1 9.50391233496307 20.36915300338132 6.836342330248735 0 0 0
242 1 10.773418667546162 18.962652538129422 8.289164735382824 0 0 0
248 1 15.172862829060566 20.45937216850265 6.8582188285274075 0 0 0
250 1 16.394007284629932 19.004684041219367 8.084103944712655 0 0 0
155 1 19.164294412695376 21.732719594396436 8.233677623943437 0 -1 0
226 1 0.10482630773613621 19.10075047937924 8.196803752876649 0 0 0
256 1 20.662791619436884 20.46963953243192 6.816951057809653 0 0 0
260 1 2.704822056749848 2.7649664765069235 11.20333267180253 0 0 0
261 1 1.4411540634034488 1.466816482756649 12.40774173912502 0 0 0
135 1 4.155239271398492 1.527176797898386 9.581403815956138 0 0 0
265 1 5.582998261773598 21.65693804543669 10.853902051035673 0 -1 0
268 1 8.248880625500336 2.862833558000947 10.910099953279335 0 0 0
269 1 6.919745575841919 1.3562270553047 12.266861765609786 0 0 0
143 1 9.312882943239126 1.2072628546963728 9.440316215865577 0 0 0
273 1 10.881687587462418 21.72963040570553 10.786536520330255 0 -1 0
277 1 12.014619106099383 1.2601956133913517 12.288674367734343 0 0 0
151 2 14.952848529784013 1.2233635049090106 9.5754626724868 0 0 0
276 1 13.500986702629966 2.742171592455977 10.904324708444603 0 0 0
281 1 16.368314863026185 21.677748418390646 10.83061881033103 0 -1 0
285 1 17.655505841542666 1.1231736797346417 12.324305058866134 0 0 0
159 1 20.534573731299457 1.2659768885295923 9.795954912235485 0 0 0
284 1 19.063548744928653 2.627704865032096 10.789719240087782 0 0 0
134 1 1.3079524206555557 4.00229940852521 9.614371885394593 0 0 0
289 1 21.702552882104968 5.374206856301788 10.843351867949995 -1 0 0
297 1 5.5168801958769205 5.564103985526751 10.69996402939844 0 0 0
264 1 4.29985371116723 4.169342297328005 12.107251642740492 0 0 0
142 1 6.904881932013793 4.125125303700829 9.358159277003734 0 0 0
150 1 12.374140228362604 4.052757747958627 9.30729221484435 0 0 0
305 1 11.019772062715841 5.496233490540974 10.873072744464334 0 0 0
280 1 14.86428573040362 4.1414082123694875 12.072562004320938 0 0 0
158 1 17.674472479353305 3.7762887782478383 9.42950337983893 0 0 0
313 1 16.473576350516925 5.366519119999637 10.880389905678367 0 0 0
288 1 20.362183102860882 3.9824291988131777 12.292304562848674 0 0 0
292 1 2.530290123689381 8.322615723658622 11.000623175682588 0 0 0
293 1 1.4050771446154322 6.7573587165198 12.2948478315598 0 0 0
167 1 3.925884164101695 7.056376283096393 9.399317820795092 0 0 0
300 1 8.229144868445841 8.059594625502063 10.902233632296937 0 0 0
301 1 6.89222513356052 6.803361581955487 12.154099605214727 0 0 0
175 1 9.631178827478683 6.59724638452698 9.6407385095142 0 0 0
309 1 12.458294558699711 6.865807353153389 12.121516341054946 0 0 0
183 1 15.101456128361376 6.9207436154718005 9.473229440470256 0 0 0
308 1 13.615978045942509 8.395700687520833 10.890369090204235 0 0 0
317 1 18.002418590647096 6.692260107736881 12.228530084430641 0 0 0
191 1 20.42849449226993 6.771839016414231 9.474489811226464 0 0 0
316 1 19.206616491992662 8.025716484437778 10.940313088175117 0 0 0
325 1 1.2211505993201375 12.297310757065462 12.096212308095701 0 0 0
321 1 21.779570529187946 10.86076570081862 10.921357720211626 -1 0 0
296 1 4.107618838499201 9.437502761733409 12.241992511996854 0 0 0
329 1 5.38924790911965 10.654221651172575 10.720988394224591 0 0 0
174 1 6.754841545598743 9.318417118806789 9.50462167218029 0 0 0
333 1 6.679514110476029 12.111441915427369 12.118437828217273 0 0 0
337 1 10.760865166963953 10.98651436950655 10.923867441060056 0 0 0
182 1 12.224040260559471 9.702223960597154 9.705194182298825 0 0 0
304 1 9.658306785490677 9.456247724112787 12.197530377321396 0 0 0
207 1 9.458346855737549 12.329654084880133 9.479036724938037 0 0 0
312 1 15.126827337631514 9.648485991898992 12.46346403385806 0 0 0
215 1 15.037530622131333 12.280594693393738 9.5158442012081 0 0 0
190 1 17.87944456008261 9.517919309329981 9.546106561870154 0 0 0
345 1 16.36946496976819 10.847825596565022 10.879530088459907 0 0 0
223 1 20.410900101062026 12.20324653614194 9.611191955011277 0 0 0
320 1 20.391271763672833 9.521952370720728 12.41850877149598 0 0 0
198 1 1.3805605388359035 14.943491183576725 9.460696967304939 0 0 0
324 1 2.768989877239778 13.48488171175051 10.77871171312945 0 0 0
328 1 3.9273417695591286 15.039178215292615 12.274722010313942 0 0 0
206 1 6.834489777119667 14.857374983967684 9.408622486578974 0 0 0
332 1 8.124334296937437 13.611900379650814 11.046971214960896 0 0 0
341 1 12.121543923986874 12.467315655952918 12.335029515163486 0 0 0
336 1 9.658043774107934 15.087228970573044 12.355787092478389 0 0 0
214 1 12.365238517012209 15.179805631484497 9.650494838995009 0 0 0
340 1 13.551221714740814 13.562413486394714 10.923739179169486 0 0 0
344 1 15.06634892731175 14.744366936209765 12.10059032657289 0 0 0
222 1 17.721924223962837 15.201759831638931 9.453343303200406 0 0 0
348 1 19.10852073843932 13.819095130632371 10.776622894413379 0 0 0
352 1 20.498851107710628 15.131346409139184 12.145954411220883 0 0 0
357 1 1.3208285089725134 17.53329028913781 12.453877230017596 0 0 0
353 1 0.06956553027904633 16.50629486486868 10.847825442079946 0 0 0
231 1 4.155241403754315 17.67801707170799 9.590369251269944 0 0 0
361 1 5.533885241570709 16.334080143441234 10.819927675982859 0 0 0
365 2 6.7912393129863515 17.948219850228472 12.312271325384362 0 0 0
239 2 9.382944079870953 17.52362203037715 9.406745334566295 0 0 0
369 1 10.84897005737201 16.554138017884394 11.041654700475512 0 0 0
373 1 12.491759262303406 17.671185860956346 12.424553521231136 0 0 0
247 1 15.128940871977802 18.031287595529925 9.518478486506531 0 0 0
377 1 16.356062357863042 16.471010276987553 11.075737533792863 0 0 0
381 1 17.964156588253616 17.81288566724876 12.459348970825607 0 0 0
255 1 20.575078257384597 17.590933739221555 9.33731501042456 0 0 0
257 1 0.37331786403001743 21.64487840546532 10.963530277787612 0 -1 0
356 1 2.807639200811775 18.853959766406582 10.9679086697201 0 0 0
360 1 4.083931312961755 20.55335646598784 12.205258350109126 0 0 0
238 1 6.74756925600288 20.324245889948738 9.463180958259702 0 0 0
364 1 8.18438432168017 19.112150048502674 10.686622746161737 0 0 0
246 1 12.314893980306605 20.24086874143459 9.537936692902386 0 0 0
368 1 9.472402255374961 20.35774169312864 12.249407520529944 0 0 0
372 1 13.695838182298003 19.06814776219788 10.929509762599125 0 0 0
376 1 15.084933690766137 20.379209958947495 12.292676702554068 0 0 0
254 1 17.744250483427116 20.27726874527542 9.62318577585333 0 0 0
380 1 19.253019999753064 18.996108675291165 10.78955698325084 0 0 0
384 1 20.667128239778375 20.37383642310154 12.188788499308034 0 0 0
259 1 2.8310795169686904 0.1720625264125495 13.643700880602026 0 0 0
258 1 0.08963280407156793 2.8387202521822084 13.62773406643901 0 0 0
263 1 4.055771376293609 1.451012143878554 14.98588119049384 0 0 0
266 1 5.497091556207479 2.8015386446722843 13.531715960594326 0 0 0
271 1 9.347485509911117 1.1842313228336498 15.19846283037432 0 0 0
274 2 10.718718759498403 2.422677649790832 13.785290487674555 0 0 0
279 1 14.577539917100108 1.3240229823659653 15.17392074615932 0 0 0
282 1 16.085076883257642 2.5242411749673517 13.67718423195492 0 0 0
287 1 20.155437566403528 1.3854449397024613 14.652363489902955 0 0 0
262 2 1.3697575616019995 4.134229052760989 15.032301761140802 0 0 0
291 1 2.687067105237332 5.4726189246062535 13.572707912396046 0 0 0
270 1 6.814534769744022 4.210115015111185 14.986580020898662 0 0 0
299 2 8.263149431555473 5.532990563858913 13.66290919272534 0 0 0
272 1 9.710886690327822 4.120438647702841 12.359020522081845 0 0 0
278 1 12.034957397172034 3.9470840300903918 14.687480020673364 0 0 0
307 1 13.535280908528595 5.4654473893837 13.587495202112768 0 0 0
286 1 17.384519757735596 4.08053963114314 14.71534773921645 0 0 0
315 1 19.175977243370838 5.335015290839344 13.725602469137286 0 0 0
290 1 0.01467390276594885 8.063308198744176 13.62585654404371 0 0 0
295 1 4.379985825420885 6.561162723099754 14.872559212521715 0 0 0
298 1 5.587036838358904 8.042922282237994 13.478077919398784 0 0 0
303 1 9.56391193947603 6.9290054768698655 14.96864294932185 0 0 0
306 1 11.024952864804687 8.208769834383943 13.474329010604876 0 0 0
311 1 14.781494535603121 6.891896550510639 14.927448556326516 0 0 0
314 1 16.593028393088858 8.193189442660078 13.990348205370191 0 0 0
319 1 20.380792661225055 6.653373754928628 14.936927821332096 0 0 0
294 1 1.5546579425197329 9.491677912209795 14.794341470543754 0 0 0
323 1 2.59052019304341 10.893886489620337 13.325202640662592 0 0 0
327 1 4.086482116155811 12.281227281873939 14.76578485440709 0 0 0
302 1 6.681442232812366 9.455458048542907 14.901754384512369 0 0 0
331 1 8.16094808567212 10.637414861012672 13.633554436468318 0 0 0
335 2 9.488012181675966 12.005175513568396 14.858674199329013 0 0 0
310 1 12.119066955568478 9.74543047960064 14.806111072877561 0 0 0
339 1 13.593649181279634 11.163049489079356 13.671763383780242 0 0 0
349 1 17.82011017918185 12.193668732035105 12.178405775374221 0 0 0
318 1 17.862799249218984 9.624089001251512 15.306213488118136 0 0 0
347 1 19.153057771545274 10.927419281780667 13.716746646861335 0 0 0
351 1 20.47395131247258 12.307265909826297 15.105924061872498 0 0 0
326 1 1.2662861727571617 15.067586626390804 15.078176758324865 0 0 0
322 1 21.763169322949505 13.775612441069297 13.691028742927541 -1 0 0
330 1 5.525514676004428 13.657492846817156 13.465264255115661 0 0 0
334 1 6.923832316143611 14.972653355550547 14.933201811686873 0 0 0
338 1 10.779036719263761 13.65564024668131 13.911597744699465 0 0 0
342 1 12.281845860374876 14.952795830405101 15.015773862382714 0 0 0
343 1 15.150656094979338 12.453398183117558 14.932029564441855 0 0 0
346 1 16.60735601872216 13.761716654979992 13.4135122628621 0 0 0
350 1 17.65331975721238 15.09746597003185 15.106818845435413 0 0 0
355 1 2.6489050469302744 16.311553110417574 13.719430234102811 0 0 0
359 1 4.169769915824303 17.70796220749418 14.9480600705367 0 0 0
363 1 8.110648526837451 16.484699574783114 13.515302593097577 0 0 0
367 1 9.687822074330299 17.655930519077486 14.96567314062368 0 0 0
371 1 13.932221229421375 16.133482787136778 13.756941013369932 0 0 0
375 1 14.989301597804568 17.760928242909735 14.931691765767901 0 0 0
379 1 19.059763295277687 16.16565636736313 13.759085630359117 0 0 0
383 1 20.44235747911151 17.677650453763196 15.056145705966609 0 0 0
358 1 1.4875048242542541 20.50833980259442 14.957123467174323 0 0 0
362 1 5.371845052413402 19.202924416311582 13.714853185251274 0 0 0
267 1 8.181481569733418 21.645379292341623 13.682477124928957 0 -1 0
366 1 6.7421028055301875 20.365163591404382 14.980558276554419 0 0 0
370 1 10.957181394949131 19.121689835877714 13.62895903680849 0 0 0
374 1 12.139157981595877 20.27090958425662 15.06407679831484 0 0 0
275 1 13.44442383628249 21.590441459085984 13.70158316424114 0 -1 0
378 1 16.505809714810006 19.068502432716578 13.657512051875274 0 0 0
382 1 17.602968885492654 20.53647956328589 15.057107761949583 0 0 0
354 1 0.07666275253453136 18.986875685764545 13.541307315696647 0 0 0
283 1 19.027693649565073 21.590633511727408 13.479915475292195 0 -1 0
389 1 1.312434582541753 1.4216418910106874 17.56612041257316 0 0 0
388 1 2.7078271237302 2.6276846141060552 16.255501874820283 0 0 0
397 1 6.7727541014958295 1.2151112062412524 17.767757181075417 0 0 0
396 1 8.214301305452265 2.8680958888823747 16.50414669904094 0 0 0
405 1 12.149276063495195 1.0902576547442788 17.97307269252481 0 0 0
401 1 10.712733383355273 21.663307712595635 16.467415340194872 0 -1 0
404 1 13.36340984194465 2.6221170828788876 16.2701377949688 0 0 0
413 1 17.728183092730465 1.6428799988591585 17.68835394697416 0 0 0
409 1 16.27609977846358 0.06751530517660885 16.45199542916116 0 0 0
385 1 21.61170949296718 0.06890727685225428 16.233431848410056 -1 0 0
412 1 18.88195356529313 2.900340534025685 16.02035452176445 0 0 0
392 1 4.144862153402336 3.8216969647319674 17.732729806716172 0 0 0
425 1 5.44420783299906 5.443760983923784 16.448016026059445 0 0 0
400 1 9.777327116036213 4.076960159836409 17.70213957329767 0 0 0
433 1 10.927866610126525 5.5049208703912615 16.27870980450811 0 0 0
408 1 14.877516690897293 4.140835135111608 17.418733685243758 0 0 0
441 1 16.245888314570138 5.615208887242184 16.20514261855866 0 0 0
417 1 0.08489014644106163 5.634467869182236 16.25815866831835 0 0 0
416 1 20.43067496337572 4.144839682116043 17.382827441283027 0 0 0
421 1 1.4953331155694913 6.8360608386344675 17.719880454876687 0 0 0
420 1 2.829253150651922 8.18854737091751 16.216929988024155 0 0 0
424 1 4.108916315062404 9.674552375336413 17.63545429745036 0 0 0
428 1 8.203516643408925 8.215099245074493 16.40424750236958 0 0 0
429 1 6.852053357307978 6.824656899230492 17.75153669654106 0 0 0
437 1 12.174689163666391 6.911207825183187 17.496530256861824 0 0 0
436 2 13.497721785928483 8.344180467256683 16.190368430294612 0 0 0
445 1 17.754890688346247 6.952987716383378 17.632099445314836 0 0 0
444 1 19.37644311840474 8.41631075964749 16.623634562499717 0 0 0
453 1 1.4342073553626293 12.448435949664333 17.630371465218566 0 0 0
449 1 0.23852481080357535 10.972135445537113 16.32990923528718 0 0 0
457 1 5.561994486342812 10.883097811520525 16.209812387015695 0 0 0
461 1 6.959080317694463 12.21617690617407 17.75709293182275 0 0 0
432 1 9.499612928793628 9.622692720223752 17.714486076906976 0 0 0
465 1 10.82004661936161 10.846684948982324 16.398604336918687 0 0 0
440 1 14.9343191898148 9.641251194738885 17.68659823619691 0 0 0
473 1 16.314491024364994 11.133352481652858 16.352235565610098 0 0 0
477 1 17.6156320994211 12.370810611221305 17.829067162975964 0 0 0
448 1 20.65768128522142 9.786661066719926 17.85082553816459 0 0 0
452 1 2.7666300946268425 13.647329257882102 16.140197291681588 0 0 0
456 1 3.9728987481300306 15.013372329818603 17.56344805028617 0 0 0
460 1 8.293289798792225 13.715886277282506 16.382245788211865 0 0 0
469 1 12.231198880520651 12.272249244581023 17.72365099340498 0 0 0
464 1 9.681508251781116 15.06763761421365 17.637020380881545 0 0 0
468 1 13.747141476944089 13.623295023994725 16.38766524025464 0 0 0
472 1 15.05440718531382 14.973889571938292 17.824847603283466 0 0 0
476 1 19.112746419718086 13.875712988076621 16.51575554393581 0 0 0
480 1 20.39962288477088 15.194011571770321 17.983663512138293 0 0 0
485 1 1.2969439954007935 17.717363999514436 17.963453804511516 0 0 0
489 1 5.455165239639026 16.280182876048148 16.15127100308764 0 0 0
493 1 6.683729695906799 17.66716817061583 17.77552060576659 0 0 0
497 1 11.058344988514248 16.447354908593447 16.476023864202347 0 0 0
501 1 12.592220465636304 17.800114316598297 17.681385976486023 0 0 0
505 1 16.362280642139346 16.39659564127975 16.69962987270075 0 0 0
509 1 17.81597554589521 17.876358882737623 17.90670087561078 0 0 0
481 1 0.012007413298560426 16.37163584885564 16.5923635025552 0 0 0
484 1 2.567976887143741 18.935149896268804 16.465330279460318 0 0 0
393 1 5.444096840792195 21.650578946254306 16.29090574303798 0 -1 0
488 1 4.159339266370607 20.10355038167247 17.79200467776685 0 0 0
492 2 8.194481550195793 19.024308432984693 16.21101343995049 0 0 0
496 1 9.347422575310322 20.347100589938822 17.933753362201003 0 0 0
500 1 13.729878900739452 19.218370714689392 16.27166386569336 0 0 0
504 1 15.024808885470428 20.392575362747888 17.841088646648203 0 0 0
508 1 19.126798238425227 19.01793610868825 16.19518449088497 0 0 0
512 1 20.216394050087803 20.385897015378802 17.559070901606415 0 0 0
4 1 2.6210726451499684 2.4886743042122124 21.76551225677056 0 0 -1
387 1 2.630761229547966 21.677149708356172 18.89152498713171 0 -1 0
394 1 5.400907130357954 2.4365439405775793 19.101545491818523 0 0 0
391 1 4.003993704257093 0.993679734551119 20.583544141005486 0 0 0
395 1 8.181570767130768 0.0964232887457932 19.262923143110235 0 0 0
399 1 9.501437908091996 1.554462068783186 20.603965760796907 0 0 0
402 1 11.077764522543045 2.861284088951655 19.335272351996235 0 0 0
407 1 15.015992384433662 1.4237703590832391 20.38371221189773 0 0 0
403 1 13.523806932559443 21.62714484974933 19.233969688688234 0 -1 0
410 2 16.08500164047783 2.723418364435978 18.937393528647576 0 0 0
28 1 18.927677584910686 3.0871719792025263 21.613623790630175 0 0 -1
1 1 21.71733929191285 0.08146143359434478 21.72171893665159 -1 0 -1