LAMMPS data file via write_data, version 29 Aug 2024, timestep = 10000000, units = metal

512 atoms
2 atom types

0 21.79363031 xlo xhi
0 21.79363031 ylo yhi
0 21.79363031 zlo zhi

Masses

1 28.0855
2 12.011

Atoms # atomic

5 2 1.2966182566388689 1.2917347437231086 1.245845037286535 0 0 0
3 1 2.6443932454740726 0.0036409818465259446 2.7513549991940196 0 0 0
10 1 5.3678749790557205 2.8651926412942736 2.3940044476431823 0 0 0
13 1 6.624978151181186 1.531348390330444 1.2057941843383981 0 0 0
12 1 8.096825117139568 2.774655359252182 21.61782883352173 0 0 -1
18 1 10.974862816840382 2.913961289394826 2.687872114231096 0 0 0
21 1 12.23877397608149 1.377745286467095 1.4823764559695702 0 0 0
17 1 10.798569255010262 0.06656711435250015 0.05470294390286866 0 0 0
19 1 13.729160040804645 0.08398357250182607 2.6168523594736306 0 0 0
20 1 13.43163264786399 2.5894622836167014 21.632726987982544 0 0 -1
29 1 17.804201062921848 1.0759106122095572 1.3408656733496604 0 0 0
26 1 16.41810211583633 2.6791651530170646 2.6308887146605198 0 0 0
2 1 21.616823651294013 2.916947036781808 2.613903726587521 -1 0 0
27 1 19.27836988580197 0.12030805968627765 2.808688309681074 0 0 0
28 1 19.12984218705517 2.759402110041217 0.10983943813995722 0 0 0
35 1 2.7734620349448083 5.409082028542207 2.6246529513260217 0 0 0
8 1 4.016887684454992 4.0334082107763125 1.2218773338060118 0 0 0
43 1 8.214921381790786 5.43163343398759 2.2548711447621446 0 0 0
16 1 9.72683150548446 3.9795885673772426 1.0075801355471625 0 0 0
24 1 14.86851560543991 4.0976385011764425 1.450078174874278 0 0 0
51 1 13.609712352178938 5.6810567908771255 2.792767674822665 0 0 0
57 1 16.107282327166995 5.432920586459321 21.759574994179605 0 0 -1
33 1 21.785483623474825 5.605303521767108 0.13127696085532747 -1 0 0
32 1 20.129787286048426 4.182894750032365 1.3910689319619653 0 0 0
59 1 19.04152058616675 5.495746294191615 2.8520584938833022 0 0 0
37 1 1.16715447318003 7.036595345929097 1.5469594777134137 0 0 0
34 1 21.737110705873544 8.167902332968234 3.0065753911341284 -1 0 0
42 1 5.535287746067742 8.161894574908764 2.5413642413463644 0 0 0
45 1 6.873021531979042 7.0497971840780895 1.0787659022088023 0 0 0
44 1 8.371347944012742 8.68700955778381 21.421633059576845 0 0 -1
50 1 10.785791611997286 8.441875985847922 2.5544736775392365 0 0 0
53 1 12.229989903178183 7.067541237146389 1.2174965695080426 0 0 0
61 1 17.532010494247345 6.784537208290999 1.4745892201908646 0 0 0
58 1 16.30880151273806 8.413256126809568 2.5114252934716466 0 0 0
67 1 2.7602857352644135 10.849858858820749 2.7579594294230643 0 0 0
65 1 21.6897579847782 10.774368734409803 0.06435971250925725 -1 0 0
40 1 4.088888463162733 9.47405217021931 1.3372935842911102 0 0 0
75 1 8.105849110154367 11.159358559471597 2.7675437415423616 0 0 0
48 1 9.367258021121227 10.019328192842643 1.2157011284217416 0 0 0
56 1 14.836660459124772 9.680736013064417 1.3166904015836132 0 0 0
83 1 13.649480618898114 10.791424314960551 2.8541299410183565 0 0 0
93 1 17.78086544853536 12.24363734083596 1.6111203357154902 0 0 0
64 1 20.326803325901388 9.55500657420913 1.520882807596344 0 0 0
91 1 19.08617990101394 10.98657942406956 2.8938870679948616 0 0 0
69 1 1.47183192438651 12.097102433542522 1.0995929865945928 0 0 0
66 1 0.15579671468560688 13.417559534697135 2.815430171566528 0 0 0
72 1 4.145966997857884 14.844783308753055 1.1797405329427748 0 0 0
74 1 5.447613246615478 13.555317758646602 2.6551284021255173 0 0 0
77 1 6.845982699108787 12.24122011858675 1.3387047044035036 0 0 0
85 1 12.448259204997433 12.265806643107311 1.5945478399999409 0 0 0
80 1 9.768389323456294 14.928162551575978 1.4986423001799825 0 0 0
82 1 11.232671476816114 13.643258731563785 2.8992320860979675 0 0 0
88 1 15.007937840185983 14.99575116683574 1.4199272495479307 0 0 0
84 1 13.882318851262209 13.59869121391497 0.12497114257786279 0 0 0
90 1 16.442477380910134 13.623642290134194 2.7602259063325585 0 0 0
96 1 20.578741634042952 14.823151202182306 1.6937624270379283 0 0 0
92 1 19.103751895014703 13.543803761605888 0.2378449316574574 0 0 0
101 1 1.3963273515398795 17.679429103868724 1.3033217742473377 0 0 0
99 1 2.8963848010462168 16.285908311470134 2.577302394351666 0 0 0
109 1 6.770698386504165 17.753693388822303 1.574849784396472 0 0 0
107 1 8.42227951220924 16.417514033484505 2.6404321007322564 0 0 0
117 1 12.206234006295029 17.727578724992238 1.4964168292574171 0 0 0
113 1 10.899928282727865 16.53193672065904 21.7904395387366 0 0 -1
115 1 13.57634758309461 16.127300291267577 2.763139764463682 0 0 0
125 1 17.548930157142806 17.5874366913358 1.336884734887931 0 0 0
123 1 18.94874168062122 16.26681568584299 2.7931723865037608 0 0 0
98 1 21.670677937101477 18.787101927516627 2.759649619384036 -1 0 0
1 1 21.77123117997665 21.648023768320773 21.683447810945143 -1 -1 -1
100 1 2.7922464365473605 19.197123937670323 0.10050331241290067 0 0 0
106 1 5.539392833518572 19.33536846637271 2.8901687705147197 0 0 0
104 1 4.15017723729802 20.519262323822325 1.432152300795992 0 0 0
11 1 8.106080735095855 0.26875785906991945 2.634714149160536 0 0 0
112 1 9.303231042784988 20.583143922498387 1.2443419483599187 0 0 0
114 1 10.845892468803285 19.265263363504754 2.7783099061055956 0 0 0
120 1 15.072919988119295 20.437767471135043 1.2971875655108982 0 0 0
116 1 13.551477028952668 19.064040102024435 0.04314223774254827 0 0 0
122 1 16.351398548046678 18.981096157721534 2.7635847308526036 0 0 0
25 1 16.410137734785216 21.667426960528076 21.783338610916413 0 -1 -1
128 1 20.577607440105165 20.181195573819863 1.4119422172634113 0 0 0
124 1 18.94165193245418 18.93683729458998 0.016957513226510925 0 0 0
132 1 2.9753842375164035 2.7114575266906495 5.181893907302171 0 0 0
7 1 4.3380772574605535 1.351763533255842 3.872975134634653 0 0 0
137 1 5.3685530744706895 0.15571361114256277 5.584594955076037 0 0 0
140 1 7.8199566875265605 2.733830580256941 5.319044245205239 0 0 0
15 1 9.517540769995417 1.6388657754735756 4.036528787971568 0 0 0
145 1 10.760765619330984 21.762856329472577 5.212186282603136 0 -1 0
23 1 14.910814334600001 1.4685258951323492 3.9507668663570152 0 0 0
148 1 13.617484016612389 2.886520901829632 5.350924964770784 0 0 0
153 1 16.288481185084684 21.772142820252864 5.093139287389001 0 -1 0
156 1 19.02614039402993 2.8248079968134348 5.419319539435847 0 0 0
31 1 20.392408864834447 1.5518705887266262 4.188920782210256 0 0 0
6 1 1.381732319034999 4.066364339347209 4.105755201556983 0 0 0
169 1 5.402219821958869 5.563531179643228 5.113590712654622 0 0 0
14 1 6.664112453728617 4.228574044462428 3.7966068070180476 0 0 0
177 1 10.696030729037387 5.602830464364777 5.388660855298698 0 0 0
22 1 12.2950592868001 4.352280489316868 4.017422609125881 0 0 0
30 1 17.649757049906487 3.950589371145835 4.120812852124913 0 0 0
185 1 16.37073340871497 5.6495673718358885 5.4898464467850205 0 0 0
161 1 0.2322908284501004 5.666209350942711 5.488603269383857 0 0 0
164 1 2.9321496920711105 8.19352861220775 5.282721453116358 0 0 0
39 1 4.201140907402126 6.827468590281258 3.958335343479861 0 0 0
172 1 8.087842531587063 8.103675945374002 5.39258081415936 0 0 0
47 1 9.423170729918857 6.9347544506837995 3.9931978621894655 0 0 0
55 1 15.126737947713924 7.076039843542729 3.9893908023035407 0 0 0
180 1 13.526008963262376 8.330324206229298 5.322858776482632 0 0 0
188 2 19.01469665769717 8.33117319788663 5.483678770787556 0 0 0
63 1 20.35901979649029 6.792794968986915 4.1576846978217805 0 0 0
38 1 1.4130809973968288 9.393492832715 4.178811738670627 0 0 0
193 1 0.0329188729565013 10.882637799186 5.552356337563775 0 0 0
201 1 5.3920372129983685 11.047185747642652 5.602415473220494 0 0 0
71 1 4.231928357652923 12.223008954484216 4.009230557055076 0 0 0
46 1 6.826646817196476 9.70967789393398 4.108817768133294 0 0 0
79 1 9.540711549489258 12.480417683483642 3.963236743258788 0 0 0
54 1 12.039842253711997 9.650271362808562 4.043069200113279 0 0 0
209 1 10.784256879012903 11.06626986852457 5.468882062939304 0 0 0
87 1 15.038047582525277 12.335188083797876 3.9956987778791087 0 0 0
62 1 17.649141406266256 9.602506612295304 4.162438214028512 0 0 0
217 1 16.358935894825663 10.969692011861929 5.456559191380445 0 0 0
95 1 20.570953570913208 12.324210736918385 4.190604269924308 0 0 0
70 1 1.26361719386455 15.05592899185346 3.913537090885067 0 0 0
196 1 2.822272906908805 13.548304992684779 5.175383694389637 0 0 0
78 1 6.869347872277927 15.037783491102493 3.7401410920238662 0 0 0
204 1 8.11329849375264 13.825972435210044 5.385985357732706 0 0 0
86 1 12.427369135957486 14.892122978682377 4.291071288831963 0 0 0
212 1 13.77784755377168 13.781054158033026 5.834051034055293 0 0 0
94 1 17.65250683690875 14.93563489809128 4.181289076621211 0 0 0
220 1 19.014425249123963 13.48066954899396 5.59384337027805 0 0 0
225 1 21.74614903320787 16.080449762846087 5.569162938268452 -1 0 0
103 1 4.059450342105743 17.756242329272737 3.9510198757144104 0 0 0
233 1 5.428602301819994 16.43807794101002 5.309994976234588 0 0 0
111 1 9.726397892912752 17.90354242261874 4.272165716995964 0 0 0
241 1 11.196574960860943 16.49614683075288 5.424353947408813 0 0 0
119 1 14.86051519293826 17.493452210870785 3.980433137424719 0 0 0
249 1 16.460574260359813 16.526741811169682 5.600714946490659 0 0 0
127 1 20.39940270149724 17.491865743380004 4.20745455926108 0 0 0
102 1 1.2704104726801753 20.207601401930727 4.017683790201852 0 0 0
228 1 2.716789861171134 19.001171982393597 5.479277883872158 0 0 0
236 1 8.402562421992911 19.12958748621776 5.664571486335561 0 0 0
110 1 6.981429848377054 20.66783547620035 4.190912216846653 0 0 0
118 1 12.408278843032424 20.554407479150598 4.116247679022006 0 0 0
244 1 13.547681302001799 18.972441135968158 5.473121723434457 0 0 0
126 1 18.079107431864404 20.335492664132445 3.977650121025569 0 0 0
129 1 21.672320985578292 0.018129860769205395 5.405357625943231 -1 0 0
252 1 19.329512060132238 19.074043491659953 5.606264005665337 0 0 0
133 1 1.4783749564776276 1.350790531443821 6.464265089016845 0 0 0
130 1 0.19077087194741923 2.5771200257740445 7.978167384506313 0 0 0
131 1 2.6689672495669345 21.674491627600624 7.991451950052438 0 -1 0
138 1 5.390869724282768 2.9422937105443974 8.144072517007961 0 0 0
141 1 6.588353709681569 1.4961567397418145 6.899843922249493 0 0 0
139 1 8.123704293675528 0.19534073887618555 8.378468870855446 0 0 0
146 1 10.8818094744307 3.0368673181410295 8.021357822866955 0 0 0
149 1 11.928041390887815 1.6194237762226567 6.47236741077323 0 0 0
151 1 14.84938160794795 1.3227728302994388 9.48584540097545 0 0 0
157 1 17.66253297476312 1.255467518118061 6.753713861153796 0 0 0
154 1 16.439109370010804 2.5399990952026448 8.125855550617766 0 0 0
163 1 2.8412520679115025 5.331289172368745 8.052841593327217 0 0 0
136 1 4.195114293404392 4.156820836115438 6.581349322195942 0 0 0
171 1 8.140004395933852 5.586495228257162 8.115507623272453 0 0 0
144 1 9.202307042199255 4.234673413269922 6.613656713572526 0 0 0
152 1 15.081912496347012 4.137104156634091 6.794912365878158 0 0 0
179 1 13.699076844029646 5.475187377234707 8.143824810139236 0 0 0
187 1 19.041871519892666 5.290933209836168 8.162144756483219 0 0 0
160 1 20.577334189811246 4.155759706935786 6.663942455484344 0 0 0
165 1 1.6060767907282165 6.846685167423604 6.800394908142357 0 0 0
170 1 5.291094224921834 8.295095083297458 8.094455507214988 0 0 0
173 1 6.71907964654031 7.00796498553483 6.78488354097164 0 0 0
178 1 10.87334636225092 8.333963947302852 8.086379166468685 0 0 0
181 1 12.216870246579775 6.785338394654347 6.942577689710283 0 0 0
175 1 9.567275386554355 6.712294053522206 9.488223911446726 0 0 0
186 1 16.110123851007895 8.278611225443411 8.267493242001708 0 0 0
189 1 17.72797204186481 6.942846203233184 6.931238029673514 0 0 0
162 1 0.10633302013750168 7.985872882647929 8.303001027813352 0 0 0
192 1 20.53851837515411 9.415768943143696 6.933509469400136 0 0 0
195 1 2.733253336409134 11.019045181087895 8.404777678694098 0 0 0
197 1 1.4808420378684528 12.32295626569815 6.816753658659938 0 0 0
168 1 3.9284443479572775 9.743966189433118 6.772584746665659 0 0 0
203 1 8.221631763160111 10.850213211154573 8.295186349136056 0 0 0
205 1 6.855027685205211 12.40995959447758 6.890822014948179 0 0 0
176 1 9.521218131894262 9.563560659197135 6.708339816664438 0 0 0
213 2 12.365829827715991 12.099596191543226 6.767502508272002 0 0 0
184 1 14.895237451022643 9.831471767602386 6.7693756028485295 0 0 0
211 1 13.631835371021094 10.838955204194452 8.315735814773022 0 0 0
221 1 17.75496553094135 12.198382748367772 6.964817632516261 0 0 0
219 1 19.17452561860374 10.93960984628868 8.216749310595924 0 0 0
200 1 4.327374400781183 14.834388766055085 6.723544700686783 0 0 0
202 1 5.551607437714564 13.790395868323698 8.348757234897256 0 0 0
208 1 9.720443466124191 15.001678189468242 6.806665479703391 0 0 0
210 1 10.972234888704849 13.614550036230707 8.169229361185355 0 0 0
216 1 15.295358047494517 15.115152157598683 6.899526943531986 0 0 0
218 1 16.45057266592547 13.523536068878725 8.10931500677827 0 0 0
194 1 0.2992095236627037 13.753695175547259 8.166428160371346 0 0 0
224 1 20.42904700040129 15.009783942539965 6.952891832032914 0 0 0
229 1 1.335088909460296 17.717663756992273 6.882406116221989 0 0 0
227 1 2.902646818289324 16.232601541897097 8.041423082680097 0 0 0
235 1 8.307548491289625 16.438456484664094 8.170355336412904 0 0 0
237 1 6.885841676878949 17.694319512085865 6.7387863225569316 0 0 0
245 1 12.328024870279021 17.726809006816193 7.146442389833357 0 0 0
243 1 13.792555603709438 16.290333382474934 8.355327802269716 0 0 0
253 1 17.735217943933577 17.78402641409688 6.994990614880587 0 0 0
251 1 19.0513804901196 16.39528371852506 8.292161621697511 0 0 0
255 1 20.588549169568477 17.74176156070114 9.523189072149398 0 0 0
234 1 5.412487716879274 19.135091072695626 8.175774669961871 0 0 0
232 1 3.918002921979007 20.578268607557014 6.657926303707848 0 0 0
240 1 9.493461253718973 20.661795888435254 6.964327803460016 0 0 0
242 1 10.802028068645786 19.01712615351713 8.208608010810128 0 0 0
147 1 13.34061703698468 0.21878777046525144 7.902788057101258 0 0 0
248 1 15.001045777798113 20.513581012508862 6.681479583434725 0 0 0
250 1 16.54262406222874 19.190005445865975 8.197780356562802 0 0 0
155 1 19.262370088073336 21.764520786326216 8.104038658222535 0 -1 0
226 1 21.774375910179824 19.040278888952738 8.221821435516153 -1 0 0
256 1 20.616880585998942 20.501686407649935 6.945572321848728 0 0 0
260 1 2.52452546449119 2.702257114942392 10.735064534066998 0 0 0
261 1 1.3882392400937662 1.2227950891370716 12.170587166458025 0 0 0
135 1 4.076364297225394 1.3306600294645503 9.333784343045169 0 0 0
265 1 5.252434006524077 0.13618600729695984 10.988832255984192 0 0 0
269 1 6.698816259861507 1.4867322990303622 12.231056568784 0 0 0
268 1 8.213787704007204 2.7602746833482295 10.991582920743621 0 0 0
143 1 9.726361771537265 1.70601976097845 9.57600931599251 0 0 0
277 1 12.230224821666953 0.975193589141554 12.224145368347811 0 0 0
276 1 13.539479016165844 2.64335929054546 10.964095080161256 0 0 0
285 1 17.653069644291698 0.9787109362050157 12.393661333881292 0 0 0
159 1 20.426208729462914 1.177583107624016 9.563988816584848 0 0 0
284 1 19.21403515816174 2.678365466624269 11.038201141107754 0 0 0
257 1 0.07114099971671957 21.54456135770318 11.027982947707008 0 -1 0
134 1 1.4291221795611606 4.093465777748592 9.445063489305118 0 0 0
297 1 5.433562685862291 5.5361216736148275 10.807356444618058 0 0 0
264 1 3.9189339213313437 4.28089254488993 11.971679522651874 0 0 0
142 1 6.972353321584108 4.211173369602266 9.582281858396408 0 0 0
272 1 9.663263795078164 4.14642483217608 12.453612042837074 0 0 0
305 1 11.013071826298388 5.3162685622833665 10.96695560237509 0 0 0
150 1 12.254216799361606 4.176361192133433 9.558428984083402 0 0 0
280 1 14.940658784952221 3.8018490550187405 12.474492863430019 0 0 0
158 1 17.569921823197088 3.943075372459822 9.812964717002542 0 0 0
313 1 16.25348621329717 5.192912706228053 10.998638152187041 0 0 0
289 1 21.768704440304873 5.226714377404924 10.81898193809518 -1 0 0
288 1 20.448746451279398 4.023163663341785 12.30956251685158 0 0 0
292 1 2.678654950601788 8.10020190344775 10.872812703237768 0 0 0
166 1 1.463322576063943 9.580038734805134 9.610943197446547 0 0 0
293 1 1.1325214548704374 6.466910192040688 12.266086872802918 0 0 0
167 1 4.062334491923571 6.819389221596962 9.529465695395983 0 0 0
300 1 8.051035416147988 8.081890968582632 10.86313059946805 0 0 0
301 1 6.591713000816048 6.862887876905757 12.221620353830817 0 0 0
309 1 12.341687322259128 6.621110010261182 12.510782947254397 0 0 0
183 1 14.979301522133467 6.69661616650291 9.654977757373691 0 0 0
308 1 13.581268859508791 7.986361315075539 10.96152341641218 0 0 0
317 1 17.643461624626774 6.551509506266786 12.28118803433712 0 0 0
191 1 20.353659047733462 6.5504400562138905 9.495153820271565 0 0 0
316 1 18.986419134721988 7.854329088405468 10.845782699512968 0 0 0
325 1 1.2168965006629826 12.042788802862416 12.500641792202964 0 0 0
321 1 0.08576264360884878 10.890512335351067 10.876196783893501 0 0 0
199 1 4.123993763146607 12.447981639525581 9.764052399996096 0 0 0
296 1 4.114278965363956 9.483948982547517 12.236361883603136 0 0 0
329 1 5.441932731684475 11.00750831726437 11.021356843861746 0 0 0
174 1 6.764852511815949 9.593645980910315 9.549091848441886 0 0 0
333 1 6.730711301983503 12.352511884372316 12.41207808168904 0 0 0
182 1 12.340475589102153 9.508334014673688 9.674154313023209 0 0 0
207 1 9.4763022686816 12.428890058083612 9.661708030525961 0 0 0
337 1 10.818782870957001 10.964213859765188 10.934739593063664 0 0 0
304 1 9.396042580769944 9.53351556765509 12.260350483986345 0 0 0
341 1 12.140017676975685 12.51081560176022 12.175794010296304 0 0 0
312 1 15.329825679060017 9.489858737959425 12.179140031062719 0 0 0
215 1 15.034132600013825 12.167374480733677 9.635038948097428 0 0 0
190 1 17.735901635421218 9.281577052580495 9.545463493832688 0 0 0
345 1 16.600276119718263 10.648371158388233 10.917310494482544 0 0 0
223 1 20.784482514197908 12.358297410835098 9.34040002144354 0 0 0
320 1 20.435171357446464 9.583043844511947 12.152077428780993 0 0 0
198 1 1.612873460130705 14.966289769606124 9.644067696615988 0 0 0
324 1 2.5351000245517 13.383673909416766 11.105987760412285 0 0 0
328 1 4.070959324185453 14.920329381454495 12.36532259295004 0 0 0
206 1 6.930101823249844 15.24889375275324 9.749426916336066 0 0 0
332 2 8.123436532170986 13.783696115529898 11.128816583374066 0 0 0
336 1 9.641502517890576 15.244033654419756 12.328361636745706 0 0 0
214 1 12.338574852807657 15.178724247746347 9.641685088661466 0 0 0
340 2 13.704251452718303 13.938146437832545 10.943084381185486 0 0 0
222 1 17.73316597268484 14.823191805694957 9.491954549745511 0 0 0
348 1 19.203344158499654 13.520871844231516 10.729099353789813 0 0 0
352 1 20.469488110622994 14.750505089147211 12.180407482517502 0 0 0
357 1 1.5811608064050626 17.731566083170286 12.207080789806426 0 0 0
353 1 21.78143806867219 16.375336397220686 10.949584777475051 -1 0 0
231 1 4.151465114781508 17.68131142201791 9.509410580414135 0 0 0
361 1 5.263208714029602 16.312753732643603 11.090288786184502 0 0 0
365 1 6.755251998075379 17.714133541218853 12.28347976202245 0 0 0
239 1 9.537941923449718 17.540397985327118 9.6844318446417 0 0 0
369 1 11.015275716822124 16.401690114837816 10.924189791693315 0 0 0
373 1 12.224818334284723 17.679581276500098 12.26451675562328 0 0 0
247 1 15.026939083858746 17.880517994646105 9.600510390434192 0 0 0
377 1 16.266000897874527 16.079650713547863 10.972379244002463 0 0 0
381 1 17.770084207254897 17.501619118110696 12.29878421330553 0 0 0
230 1 1.4020360371616174 20.386943703100453 9.688700305207222 0 0 0
356 1 2.7364216199629414 19.034225529154508 10.73584043438184 0 0 0
360 1 4.101583816106388 20.24876930447575 12.342172875700474 0 0 0
238 1 6.662022157848392 20.613961720873384 9.6147701528114 0 0 0
364 1 8.037278250684253 19.099263280095677 10.984837559341141 0 0 0
273 1 10.78761607521547 21.74850268230641 10.714362158289504 0 -1 0
368 1 9.472622599672503 20.461041742748318 12.502074445161446 0 0 0
246 1 12.228475586897472 20.404984990317487 9.308979547115332 0 0 0
372 1 13.442038441127865 19.115703827616155 11.005378648947566 0 0 0
376 1 15.127481448346382 20.027703103277982 12.216937473116678 0 0 0
281 1 16.451020673382228 21.562748694043123 10.84979466413603 0 -1 0
254 1 18.09344435283843 20.388604704699546 9.550473641822807 0 0 0
380 1 19.252254844961286 19.000578126278736 10.901378356054865 0 0 0
384 1 20.611222060500946 20.25215411813868 12.44727715688358 0 0 0
259 1 2.69363236813333 21.679740579398857 13.426875005857928 0 -1 0
263 1 4.036005977549295 1.2739583247366395 14.79639698795994 0 0 0
266 1 5.110937579639691 2.7835275230314886 13.388772440149852 0 0 0
271 1 9.619890777175112 1.4327140884038305 15.002145298331554 0 0 0
274 1 11.096426999349651 2.621782010500312 13.608569647198665 0 0 0
279 1 15.141516288221284 1.2828033095573665 14.914170845618612 0 0 0
275 1 13.889964056232335 21.707307054692873 13.76675497097301 0 -1 0
282 1 16.354614841195993 2.5157291126830317 13.565925434210298 0 0 0
258 1 0.030315069229452263 2.692042451755691 13.592391737161263 0 0 0
287 1 20.22326802435229 1.5281852301711731 14.961647141736503 0 0 0
262 1 1.2819163646503384 3.932143103541747 15.18444224024582 0 0 0
291 1 2.5541533134149206 5.269934836441455 13.663970997648422 0 0 0
270 1 6.643629341752708 3.926050158315301 15.01483436286776 0 0 0
299 1 8.035837715997172 5.293796866992284 13.578043630683194 0 0 0
278 1 12.197331478736604 4.094368429175161 15.261633988413788 0 0 0
307 1 13.64535085998924 5.288352781340917 13.785025882516758 0 0 0
286 1 17.510889145589857 4.014305241748122 15.025310938891494 0 0 0
315 1 19.134668802376222 5.197655221273182 13.770876413795687 0 0 0
294 1 1.3964610948204892 9.51910403569963 15.231432142381877 0 0 0
295 1 3.952539943159714 6.742810110610159 14.9447823594677 0 0 0
298 1 5.441840679486628 8.175567802673484 13.809339624438453 0 0 0
303 1 9.32959469200898 6.661159628633658 15.06617665966956 0 0 0
306 2 10.82850821452405 7.880227764624751 13.639349373795463 0 0 0
310 1 12.177950053817131 9.325396857340932 14.979337270516755 0 0 0
311 1 15.027438740027161 6.756287395146055 15.11603127644141 0 0 0
314 1 16.45235628251236 8.132183383565215 13.723788669315422 0 0 0
290 1 21.741839471573044 8.25089088927965 13.595400098196254 -1 0 0
319 1 20.38786569317266 6.719789198745784 15.015324338914958 0 0 0
323 1 2.823647664913601 10.783974043520903 13.627191414364848 0 0 0
302 1 6.690585665455834 9.581398637429697 15.125858642325728 0 0 0
331 1 8.063437336544006 11.059276821072473 13.715463645148228 0 0 0
335 1 9.666255383387403 12.442929923475097 14.961645307577177 0 0 0
339 1 13.52845824514825 10.734173558872968 13.338175496146357 0 0 0
343 1 15.008698746000444 12.141275587892594 14.689033030190505 0 0 0
349 1 17.775687056250145 12.331380162321304 12.088915309830654 0 0 0
318 1 17.73397854371938 9.368922798935237 14.94106665241926 0 0 0
347 1 19.06098468348367 11.039504551886502 13.720202129003965 0 0 0
351 1 20.48461622626596 12.339766442239501 14.954195463635369 0 0 0
326 1 1.3854764923029974 14.95362157859831 14.953605180938055 0 0 0
327 1 3.9685968786343198 12.384828051190972 15.070796892446749 0 0 0
330 1 5.376938993698686 13.919826068219587 13.867392581948128 0 0 0
334 1 6.752309560228225 15.152219820573828 15.131970101675707 0 0 0
338 1 10.80018785336867 13.744739646888526 13.64040917007288 0 0 0
342 1 12.319724674153568 15.001057757889006 15.176807249486687 0 0 0
344 1 14.901237192075797 14.867352863364603 12.541389042578965 0 0 0
346 1 16.371159873198852 13.463598683706563 13.53100257817934 0 0 0
350 1 17.674252782208775 14.82066868408467 14.907553524690282 0 0 0
322 1 21.737116976850828 13.630452535651134 13.816627720264012 -1 0 0
355 1 2.708873923751478 16.360538777415655 13.454259980391646 0 0 0
359 2 3.925831529077343 17.86378945318553 14.652165029113924 0 0 0
363 1 8.263551526158217 16.347054525612364 13.59294449816906 0 0 0
367 1 9.751282120767566 17.64476110944191 15.11772105067558 0 0 0
371 1 13.4499463055282 16.220894559975733 13.565077977690933 0 0 0
375 1 14.922267278385101 17.621016355430797 14.985446547383333 0 0 0
379 1 19.029828173666086 16.244401457109387 13.47981672785146 0 0 0
383 1 20.38367001389194 17.59801412579817 15.069677075848356 0 0 0
358 1 1.2167625842004643 20.458463258578345 14.943850613783155 0 0 0
354 1 0.07074918772740091 18.90187481054751 13.77604968161981 0 0 0
362 1 5.623249379142738 19.080596222310096 13.652417381825357 0 0 0
267 1 8.024195322990309 0.12171069245251011 13.82826159803406 0 0 0
366 1 6.832477815931771 20.324581573569013 15.085407303648275 0 0 0
370 1 10.904410600702086 19.018554714576762 13.769224745381276 0 0 0
374 1 12.434780511152669 20.402542882425493 15.067474675700975 0 0 0
378 1 16.45533089478196 18.821565355130044 13.677578136803266 0 0 0
382 1 17.903137705057635 20.21434620906593 14.895493911277265 0 0 0
283 1 19.221493983230864 21.536399532818557 13.771580479804198 0 -1 0
389 1 1.416408151432872 1.4913502591242873 17.637382502525828 0 0 0
388 1 2.897994384511369 2.5727863194045004 16.364174303695428 0 0 0
385 1 21.57210822948704 0.12292221108557551 16.182385311277756 -1 0 0
393 1 5.456848915452935 0.03440632534206149 16.25040227718729 0 0 0
397 1 6.601217993431801 1.46442609037906 17.61578668814997 0 0 0
396 1 8.32268728309722 2.6447869351515196 16.380932906641863 0 0 0
405 1 12.488258236547287 1.3866747260887775 17.4871088851787 0 0 0
401 1 10.870611460343223 0.043785037652572356 16.210097543503323 0 0 0
404 1 13.714317202683153 2.655966087436471 16.368941058473204 0 0 0
413 1 17.66978232700695 1.329234017130827 17.799985268869474 0 0 0
412 1 18.771303267976087 2.6822887704593663 16.32470152121234 0 0 0
392 1 3.826879248464036 4.4299791393659875 17.595091129102368 0 0 0
425 1 5.358290288035915 5.412836625529071 16.21955848302305 0 0 0
400 1 9.415081683856046 4.152537990778735 17.791102117080115 0 0 0
433 1 10.886315065845112 5.567570542135506 16.392828898151443 0 0 0
408 1 14.976153622492456 3.705059976138188 17.681816283173728 0 0 0
441 1 16.23790980607681 5.179076542807802 16.34285260759212 0 0 0
417 1 21.7934542116215 5.504286144241065 16.258632546069553 -1 0 0
416 1 20.32709625814532 4.079435208525499 17.545218845307105 0 0 0
421 1 1.190795296502235 6.830514237830252 17.842725385785354 0 0 0
420 1 2.6640502781073394 8.039483359360789 16.563281252269707 0 0 0
428 1 8.084400305912686 8.18494868587344 16.448635111024114 0 0 0
429 1 6.629769409316611 6.6965491278339915 17.656232236108657 0 0 0
437 1 12.322751611085922 6.708668421662642 17.654226372209095 0 0 0
436 1 13.598381558499522 8.061293726103218 16.30008402490197 0 0 0
440 1 15.019197162187405 9.630698091661017 17.71867570416788 0 0 0
445 1 17.599825197777687 6.714400446944615 17.632251353848627 0 0 0
444 1 19.03855152543877 8.23183203900672 16.28168459429045 0 0 0
453 1 1.1908980775547398 12.229960163905762 17.792636173725764 0 0 0
449 1 21.767085527346303 11.01287964158094 16.372554863652823 -1 0 0
424 1 4.027668664833261 9.34170324459432 17.768541963396636 0 0 0
457 1 5.39479989045097 11.0045618024412 16.6268603282596 0 0 0
461 1 6.854435228507736 12.209054199221379 17.753422490723977 0 0 0
432 1 9.824355786806255 9.487836148342712 17.62091415607816 0 0 0
465 1 11.0554433439592 11.001839337699801 16.10743818937826 0 0 0
469 1 12.387848389856275 12.276113454630135 17.67081355743421 0 0 0
473 1 16.282852645281853 10.822213927373733 16.151916764737923 0 0 0
477 1 17.680037839269293 12.043417470410798 17.571078598700325 0 0 0
448 1 20.47394530274662 9.558290238223435 17.755450438533355 0 0 0
452 1 2.6687048677573983 13.760896459371654 16.5594653184484 0 0 0
456 1 4.151141546176239 15.177240869050173 17.72822274642842 0 0 0
460 1 8.016667824053785 13.587527629413241 16.271487503172178 0 0 0
464 1 9.472353272890574 14.758458380660775 17.729769433965124 0 0 0
468 1 13.676967641107453 13.512967841943231 16.26219496322469 0 0 0
472 1 15.076708324660963 14.804686039995085 17.609420201452984 0 0 0
476 1 18.993687569353362 13.449910209087669 16.293004373559402 0 0 0
480 2 20.661449035920054 14.899698585977962 17.601686509918846 0 0 0
485 1 1.399066659935376 17.661119879304263 17.67646306958229 0 0 0
481 1 0.11423398898412884 16.241266701093743 16.295226527337313 0 0 0
489 1 5.3840575440147465 16.617278407009557 16.358263471334535 0 0 0
493 1 6.936058041304928 17.790444589692108 17.559602509923952 0 0 0
497 1 10.814500868319803 16.083907806503092 16.45764356426119 0 0 0
501 1 12.024226628540854 17.712287644192934 17.88158503638361 0 0 0
505 1 16.21352731323185 16.27686781885146 16.233579908674635 0 0 0
509 1 17.74434242733199 17.570952741491084 17.630456982375406 0 0 0
484 1 2.6413770310598985 19.130179312354993 16.325334735581897 0 0 0
488 1 4.017437006946831 20.611367810865413 17.554942397799074 0 0 0
492 1 8.332476162431703 18.882344440621658 16.192630308015296 0 0 0
496 1 9.319602355040269 20.51596769797978 17.533178462985617 0 0 0
500 2 13.56779734040808 18.923296820531576 16.38893306934247 0 0 0
504 1 14.955198045749622 20.38172025498046 17.692677776131422 0 0 0
409 1 16.3749453404481 21.437867347335217 16.380232066547432 0 -1 0
508 1 19.05214937020168 18.870559834163405 16.259883057835903 0 0 0
512 1 20.56823071281498 20.31957028212064 17.592405252484465 0 0 0
4 1 2.5358938137077973 2.7940965999057643 0.04081097168164084 0 0 0
387 1 2.6071582049982123 0.028631587017377506 19.0904859188769 0 0 0
394 1 5.187358147052794 2.949609355173475 18.93062186220507 0 0 0
391 1 4.039688512298699 1.5132135140062608 20.42698776735591 0 0 0
9 1 5.256018322639462 0.00824240694068834 21.772057467220176 0 0 -1
399 1 9.38957190317713 1.290383925525833 20.401121158153476 0 0 0
402 1 10.872345414636934 2.5195139970099105 19.043444850589893 0 0 0
407 1 15.11830183017148 1.2252149825291065 20.374691423785485 0 0 0
410 1 16.245902959879356 2.486969234122432 19.028848973068975 0 0 0
386 1 21.76728584758714 2.826677335004802 18.833487103524515 -1 0 0