LAMMPS data file via write_data, version 29 Aug 2024, timestep = 10000000, units = metal

512 atoms
2 atom types

0 21.76561954 xlo xhi
0 21.76561954 ylo yhi
0 21.76561954 zlo zhi

Masses

1 28.0855
2 12.011

Atoms # atomic

1 1 21.69193943125559 21.702599870058467 21.75590789969625 -1 -1 -1
2 1 0.02021967441119454 2.654527489527354 2.7026639727790687 0 0 0
3 1 2.634767030203978 0.04643025046796532 2.7486959563374516 0 0 0
4 1 2.722274081171522 2.5975915326218115 21.60532540110567 0 0 -1
5 1 1.3179287767439467 1.3985313327283577 1.2017476796956061 0 0 0
9 1 5.351820035514261 21.717925503671008 0.016314404427487838 0 -1 0
10 1 5.3872152378166644 2.7186921466989005 2.8606272729308877 0 0 0
11 1 8.141525091479929 0.04797599164061349 2.747098506165035 0 0 0
12 1 8.001360055275411 2.7234679952754695 21.562018490513378 0 0 -1
13 1 6.702854412759526 1.3649681502026987 1.290588405824219 0 0 0
17 1 10.844121831369042 21.729323770191094 21.67900750981056 0 -1 -1
18 1 10.763553481552062 2.6064555313196114 2.6748773179047554 0 0 0
21 1 12.1980868397215 1.4252040335465403 1.1893439969126858 0 0 0
19 1 13.474088358383412 0.080496071544553 2.4969286803702553 0 0 0
20 1 13.466511081865125 2.6994484005296613 21.525830138748468 0 0 -1
25 1 16.299882306819523 0.09940251077395487 21.736035551979835 0 0 -1
26 1 16.371803997198406 2.781012777397002 2.5766465383819073 0 0 0
29 1 17.68075458336647 1.4113812941583495 1.3167336870935056 0 0 0
27 1 19.06445567996864 0.0024795619914764195 2.563201951314109 0 0 0
28 1 19.229706848591857 2.636005724288217 21.761048444127656 0 0 -1
33 1 0.062487381970908674 5.404616815203927 21.646310436522583 0 0 -1
35 2 2.6802539813489554 5.4571297595233865 2.5950405302448525 0 0 0
8 1 3.9678178125729726 3.863923263607742 1.2308994670402145 0 0 0
41 1 5.385306360665005 5.422326819191174 21.735447240106136 0 0 -1
43 1 8.089090626040726 5.451384897323352 2.5464497276963898 0 0 0
16 1 9.556195699033315 3.9581790569635587 1.180557326726033 0 0 0
49 1 10.773160246724384 5.465892403777102 21.70450518553262 0 0 -1
24 1 14.880784557710715 4.112030067421858 1.216198628974248 0 0 0
51 2 13.409349576214284 5.299546963424162 2.631123926704746 0 0 0
57 1 16.29756477205031 5.301021701775858 21.54248511171277 0 0 -1
32 2 20.58226846956527 3.9845910837777088 1.3890534815867985 0 0 0
59 1 19.112987310582348 5.404811741408297 2.723795337784483 0 0 0
34 1 21.749864152997848 8.205674220120658 2.7694588714537294 -1 0 0
36 1 2.8841560291720456 8.182127761661542 21.722174187147676 0 0 -1
37 1 1.3400177341835864 6.856260274046926 1.2829757331597271 0 0 0
42 1 5.33017544739417 8.157639634671384 2.836884521785162 0 0 0
44 1 8.165824975292074 8.108501555034392 21.764790171875354 0 0 -1
45 1 6.587955534707938 6.815783822248447 1.3516078820756787 0 0 0
50 1 10.954233610217408 8.144113647668355 2.755918176428566 0 0 0
53 1 12.364756780020068 6.893776633275713 1.307594261936395 0 0 0
52 1 13.600655640707014 8.172707009732683 21.703506674961293 0 0 -1
58 1 16.322452864521512 8.062359069936655 2.6971225574325395 0 0 0
61 1 17.74389438954851 6.740449693764498 1.3040862400136384 0 0 0
60 1 18.91191857266724 8.307075796504678 21.728942929907827 0 0 -1
65 1 0.0331961429009108 10.883275500308542 0.005468263336952734 0 0 0
67 1 2.590074924660013 10.782928397548554 2.9105532318149563 0 0 0
69 1 1.340648346733451 12.205897530712646 1.460744205227358 0 0 0
40 1 4.1161274409517095 9.523079508108841 1.4583881125671534 0 0 0
73 1 5.411212109261297 10.889636310980597 0.04577847173871528 0 0 0
75 1 8.242325203278826 10.840677167362273 2.756603538927858 0 0 0
77 1 6.794510854718983 12.148411264780103 1.41072909885053 0 0 0
48 1 9.577895867727973 9.362128775276592 1.3390714458955335 0 0 0
81 1 10.674638528049867 10.972999613654812 0.19597594331700374 0 0 0
85 1 12.059694082851061 12.115905272446058 1.5299325276397455 0 0 0
56 1 14.958246992758072 9.418153860951383 1.341408762728779 0 0 0
83 1 13.697427360818027 10.910923058623068 2.709178552359268 0 0 0
89 1 16.19841518043756 11.020687960546763 0.037925188473492924 0 0 0
93 1 17.65175219604335 12.340857497457794 1.3617458966638905 0 0 0
64 1 20.319166035580775 9.568680271639948 1.4736104502623963 0 0 0
91 1 18.96390511657421 11.01687279568772 2.717648905059426 0 0 0
66 1 0.04855967751622194 13.621400745272023 2.8511576103670024 0 0 0
68 1 2.5914557006032313 13.502911999168662 0.04095006511059398 0 0 0
72 1 4.118902170609161 14.813726783197124 1.3890791459471998 0 0 0
74 1 5.504743480493898 13.423767502218066 2.714812319021896 0 0 0
76 1 8.232941594737332 13.598891619896476 0.22623218550770177 0 0 0
80 1 9.629181284986926 15.038655635460895 1.4085571069274592 0 0 0
82 1 10.811881037450972 13.626270138616722 2.7285362889187352 0 0 0
84 1 13.473792428498516 13.486358262128459 0.13527080153924415 0 0 0
88 1 14.98258912596973 14.909835253966824 1.44473923016451 0 0 0
90 2 16.33606149663269 13.557569152783755 2.7907967564171408 0 0 0
92 1 19.182852514719094 13.58025569601645 0.22632709509834434 0 0 0
96 1 20.477498130471872 14.970018765485051 1.578591355597927 0 0 0
97 1 0.0016135269969245166 16.201762729858107 0.08217211244958818 0 0 0
99 1 2.8202226707313267 16.298331779916154 2.7646827348185186 0 0 0
101 1 1.388641849776942 17.64640663522635 1.3920392350789172 0 0 0
105 1 5.40712945243019 16.25553334507523 21.745949077068165 0 0 -1
107 1 8.207795729226897 16.277340329080896 2.924032402524084 0 0 0
109 1 6.816005941214165 17.44378985577478 1.5161434470498467 0 0 0
113 1 10.868697283329794 16.345238945044553 21.710451126901873 0 0 -1
117 1 12.255175731781666 17.64639754535297 1.3248782608653946 0 0 0
115 1 13.665053010765881 16.35377491264931 2.8175012336170764 0 0 0
121 1 16.305937586545788 16.243409737135945 0.03750742419512893 0 0 0
125 1 17.635824569092506 17.732340073234717 1.4173793490295354 0 0 0
123 1 18.811932066520026 16.283207292926186 2.807551214267655 0 0 0
98 1 21.746363296328603 18.84535486877636 2.856185773370511 -1 0 0
100 1 2.7905814816981946 19.096166233552946 0.03237636105756438 0 0 0
104 1 4.077029771150364 20.57426200726738 1.4001628842784444 0 0 0
106 1 5.474374551464451 19.024363903928002 2.7303902787264973 0 0 0
108 1 8.038277251408651 19.01097394299121 0.20907244879493334 0 0 0
112 1 9.5237085810462 20.52562249442334 1.4123857930187715 0 0 0
114 1 10.867007321020017 19.178175978893385 2.618275728572963 0 0 0
116 1 13.636724076388825 19.154225339355957 21.6906136055229 0 0 -1
120 1 14.925944547173362 20.351823091956426 1.4021687397131906 0 0 0
122 1 16.422702680624056 19.172936850130814 2.926238911423534 0 0 0
124 1 19.061327293544778 19.05548439617586 0.1295465894807006 0 0 0
128 1 20.506369521372815 20.25496018582346 1.401282690064284 0 0 0
129 1 0.1141123696007658 21.636770839425253 5.522072988957406 0 -1 0
132 1 2.645053057271927 2.5885004298942698 5.430047464365385 0 0 0
7 1 3.990353069408432 1.3209562009441767 4.228161283962726 0 0 0
137 1 5.524401046025746 21.591680561447216 5.498610310529818 0 -1 0
140 1 8.061074814658156 2.6588692204748763 5.516606888807932 0 0 0
15 2 9.344899217907102 1.3138539260590816 4.046410182615399 0 0 0
145 1 10.998359580794586 21.758406103972842 5.350957626035146 0 -1 0
23 1 14.835232536064687 1.4131633338965999 3.8268254417668106 0 0 0
148 1 13.592877520381688 2.532329201705028 5.444122938472344 0 0 0
153 1 16.35296248560688 0.04581714711972919 5.317729308653086 0 0 0
31 1 20.55407431444916 1.2418633638539895 4.0247834416681325 0 0 0
156 2 19.340837882031558 2.586407532924191 5.4119366361995285 0 0 0
6 1 1.2669724394060633 4.135315974299722 4.054998618463311 0 0 0
161 1 0.05621251151015486 5.5725133541851415 5.4005432521801735 0 0 0
169 1 5.340614662096503 5.444561283119977 5.545133130285756 0 0 0
14 1 6.815828144715132 4.15415624002896 4.106399187992454 0 0 0
22 1 12.07325579676672 3.846945254565493 4.180574090747928 0 0 0
177 1 10.694482313547157 5.391566738819469 5.498741886416593 0 0 0
30 1 17.818928546454494 3.8742626020794244 3.9918293459679206 0 0 0
185 1 16.391474199631936 5.414208300414165 5.357843556763913 0 0 0
164 1 2.833510272637263 8.191534850233595 5.573481830066405 0 0 0
39 1 4.008136007571761 6.741013874582769 4.145791680671009 0 0 0
172 1 8.37183218779077 7.980780198999688 5.486020120840465 0 0 0
47 1 9.629797358898118 6.623109026239953 4.0289136751973835 0 0 0
55 1 14.817230786843343 6.627047744656981 3.9078011637745087 0 0 0
180 1 13.491952674562278 8.075956071635211 5.395099785251275 0 0 0
63 1 20.37524770392675 6.875697578996216 4.205824611975294 0 0 0
188 1 19.07804837689203 8.246295944315998 5.639393634784524 0 0 0
38 1 1.1405457644357546 9.496623453231892 4.278167878166448 0 0 0
193 1 21.721630864795078 11.027913685227475 5.5443166928132745 -1 0 0
71 1 4.184620367204871 12.08822423395552 4.093383942025431 0 0 0
201 1 5.515013140476945 10.630906135004587 5.483161581457658 0 0 0
46 1 6.972924024809496 9.443032821589739 4.072010214378663 0 0 0
54 1 12.366187555558641 9.6325710499927 4.154423718266108 0 0 0
79 1 9.495732321287598 12.166451926458672 4.189983612938011 0 0 0
209 1 10.923219096489596 11.045043810244646 5.444770745099199 0 0 0
87 1 15.093367910974898 12.056779045158649 4.081992510192256 0 0 0
62 1 17.59670232974567 9.52122944329532 4.148497266596937 0 0 0
217 1 16.19036303833571 10.765649793959902 5.6136963661118715 0 0 0
95 1 20.294293638693553 12.110135320507016 4.0922994881787655 0 0 0
70 1 1.4694722771812443 14.855837534737764 4.284100610602154 0 0 0
196 1 2.915711545138889 13.552459514688666 5.484375118378458 0 0 0
78 1 6.609681033717255 14.987365466657833 4.1147442015594295 0 0 0
204 1 8.131686160755526 13.50719300624252 5.437744984459119 0 0 0
86 1 12.300757322075457 14.889928164787602 4.083269735712021 0 0 0
212 1 13.696384364474358 13.449803009321975 5.290625221738269 0 0 0
94 1 17.59369113928881 14.956531365999254 4.12993433595392 0 0 0
220 1 18.86546012800278 13.50662142827684 5.61980648670763 0 0 0
225 1 0.0039596753488791705 16.294029320206082 5.631258803928051 0 0 0
103 1 4.051174132314833 17.837350226127462 3.981601101414955 0 0 0
233 1 5.352293932574494 16.37544439541073 5.363628886838912 0 0 0
111 1 9.610208752624047 17.795090452645173 4.064446668501149 0 0 0
241 2 10.93775124910918 16.402696808429475 5.348528901115782 0 0 0
119 1 14.97902819737185 17.752685702369245 4.124862126653963 0 0 0
249 1 16.255965349113932 16.356860146660093 5.381782254536016 0 0 0
127 1 20.427479361729116 17.411778187565474 4.075571102787719 0 0 0
102 1 1.2367840971173412 20.24533994680836 4.053989256703984 0 0 0
228 1 2.619976321742136 19.08644888071161 5.290492374948746 0 0 0
110 1 6.867262106134543 20.312936745524173 4.062440233782211 0 0 0
236 1 8.058085204484284 18.929194871752692 5.573807192574891 0 0 0
118 1 12.306970419885863 20.523950597060832 3.9029579880635765 0 0 0
244 1 13.410193008287846 19.16953911906799 5.468090349636661 0 0 0
126 1 17.794564258270437 20.43300253954279 4.066532029872832 0 0 0
252 2 19.276496825746403 18.922732973273163 5.423801494046221 0 0 0
130 1 0.10284160985802007 2.67935376387418 8.292614250070963 0 0 0
131 1 2.7125430778638346 0.01653569806959322 8.09196922140085 0 0 0
133 1 1.4839184997391768 1.397599107891662 6.840770637710209 0 0 0
138 1 5.524169804434925 2.8026667783832444 8.10124852240287 0 0 0
139 1 8.277228447833462 21.661662184269353 7.942363067384212 0 -1 0
141 1 6.806592552120111 1.3172545319501523 6.939107009793268 0 0 0
146 1 10.89090218938625 2.7776902317056082 8.08580418206028 0 0 0
149 1 12.27544044691256 1.2993173210028202 6.817117321030974 0 0 0
147 1 13.761523471088088 0.20469664694466597 8.249639511786546 0 0 0
154 1 16.454196545236112 2.758759410746829 7.947613218714163 0 0 0
157 1 17.788827611869568 1.2490555166010002 6.851795656355237 0 0 0
155 1 19.066143284528675 21.710998802608206 8.144229712017122 0 -1 0
163 1 2.7134257621418443 5.2589675826818425 8.206363554086483 0 0 0
136 1 4.1087759870867036 4.012570918967166 6.767232089983081 0 0 0
171 1 8.11645468631802 5.276367643624088 8.279486351409167 0 0 0
144 1 9.263723290412333 3.995458563017386 6.9004438575547455 0 0 0
152 1 15.024252168547438 4.123999464761548 6.73420921511767 0 0 0
179 1 13.616599012468134 5.389307517188208 8.097902635524115 0 0 0
160 1 20.584964066433237 4.011990636453896 6.855982284706385 0 0 0
187 1 19.383453234417257 5.370653150509605 8.413137188136266 0 0 0
162 1 0.1566231228763395 8.193464566512388 8.107457736900235 0 0 0
165 1 1.4541369624104965 6.8387478619544 6.7913931288790055 0 0 0
170 1 5.546109239673021 8.132265156131787 8.19175312244152 0 0 0
173 1 6.849383641689775 6.76272846431418 6.8999915736731445 0 0 0
178 1 10.96849694813529 8.108154588054731 8.230805999386147 0 0 0
181 1 12.32948329536427 6.764758089684996 6.817652406096455 0 0 0
186 1 16.22963325016981 8.09240035690507 8.194342603073803 0 0 0
189 1 17.922698814606466 6.529304721707172 6.984544045338303 0 0 0
195 1 2.9608877443353765 10.852655017441466 8.160861696735573 0 0 0
197 1 1.5433366091546332 12.186941367855532 6.894476336704039 0 0 0
168 1 4.2509685288651875 9.512731998591292 6.836034151922198 0 0 0
203 1 8.261777490612182 11.0254349182366 8.223950950660063 0 0 0
205 1 6.757933620534599 12.1641207231632 6.736338244915377 0 0 0
176 1 9.573770132666054 9.5099428292412 6.805122124000654 0 0 0
213 1 12.253008085330794 12.35889370521047 6.767481912263798 0 0 0
184 1 14.869285435625828 9.400087463937606 6.774504521277227 0 0 0
211 1 13.541057765255395 11.043466448444073 8.097284933241687 0 0 0
221 1 17.530492583017462 12.115592845063295 6.887377592109008 0 0 0
192 1 20.453215880271795 9.588933996307519 6.765250959835111 0 0 0
219 1 18.991293044632048 10.928438371022159 8.163566428332027 0 0 0
194 1 0.04574534817458193 13.549609310957793 8.246099162746926 0 0 0
200 1 3.9877448229773966 15.132816718725577 6.884542060635027 0 0 0
202 2 5.379408349625594 13.533149950134788 8.087803188070177 0 0 0
208 1 9.471389846074214 15.008450431300549 6.658515123351832 0 0 0
210 2 10.886144156565315 13.793753551421323 8.056377039287383 0 0 0
216 1 14.982500566636757 14.848182788083117 6.631552064256385 0 0 0
218 1 16.15649279148539 13.501612458304868 8.147531292787269 0 0 0
224 1 20.37619807512413 14.92524126088756 7.072144246800174 0 0 0
227 1 2.5525530085306354 16.283682805318605 8.150678988250315 0 0 0
229 1 1.2213505827391098 17.733565067964385 6.780960722779412 0 0 0
235 1 8.26570302480406 16.300081662980684 8.037238726818375 0 0 0
237 1 6.7497942233993955 17.481156877845677 6.8353379014651665 0 0 0
245 1 12.230049702693067 17.653575595947625 6.784486255319706 0 0 0
243 1 13.716070251471887 16.265620223324213 7.9801560084788346 0 0 0
253 1 17.56851391439372 17.618122511895464 6.724352629890438 0 0 0
251 1 18.977564103473615 16.277845419919643 8.230906646273223 0 0 0
226 1 0.20125039152307075 19.054052174200006 8.376332992911546 0 0 0
232 2 3.8699621606048207 20.203638088964 6.757112414634776 0 0 0
234 1 5.451582982140805 18.854352352066936 8.091628384410509 0 0 0
240 1 9.646130299693455 20.268645277817644 6.707885821316387 0 0 0
242 1 10.949552894600687 19.03067990088769 8.060209212315906 0 0 0
248 1 14.943281584738832 20.527149107159644 6.636032216673454 0 0 0
250 1 16.326681792755608 19.026440611634428 8.008799087555396 0 0 0
256 1 20.645321433234816 20.30625504801394 6.975943405054715 0 0 0
257 1 0.076774347522963 0.18567697614361056 10.766691327379489 0 0 0
260 1 2.9208176645199817 2.722106063239694 11.030707568705777 0 0 0
261 1 1.5268143455017007 1.3265829257739963 12.22538908653996 0 0 0
135 1 4.155252640502085 1.3553958691714278 9.525269078858527 0 0 0
265 1 5.504746661245875 21.578155630090254 10.850920020561176 0 -1 0
268 1 8.25821167724678 2.469847933440505 10.955938999432899 0 0 0
269 1 6.7762189744476045 1.2394814720585172 12.30156282106115 0 0 0
143 1 9.562352238684836 1.1914247236759115 9.445866863799107 0 0 0
273 1 10.966186215478785 21.723062671501104 10.78724555949019 0 -1 0
277 1 12.373023996488083 1.4344552096975376 12.101494586200014 0 0 0
151 1 15.214244989326744 1.5155775906082534 9.426368653558574 0 0 0
276 1 13.802282148651301 2.8451949267611014 10.81603244845563 0 0 0
281 1 16.38937386264758 0.010570536566344775 10.8879517640943 0 0 0
285 1 17.701488041788952 1.3151624690011499 12.344448466239735 0 0 0
159 1 20.291162304315375 1.5216700627394115 9.444492601121398 0 0 0
284 1 18.960738918428397 2.840948782098982 10.890898721150464 0 0 0
134 1 1.4707554212044804 4.000571226251771 9.6177141119059 0 0 0
289 1 0.09125711115376894 5.397539908533799 10.999551522443122 0 0 0
264 1 4.228946112842694 4.1536151581264935 12.441390411294266 0 0 0
297 1 5.3809269035611225 5.355708302558766 10.980983535541043 0 0 0
142 1 6.860548579980003 3.9778582831762295 9.625356865975935 0 0 0
150 1 12.278819053306847 3.9794299036221825 9.520709274321899 0 0 0
272 1 9.417422375927806 4.031074292504999 12.292839150246405 0 0 0
305 1 10.757457070620804 5.368713988016724 11.031371342114234 0 0 0
280 1 15.065240648754274 4.063327208778126 12.358631025859369 0 0 0
158 1 17.77811958281053 4.1009986183881235 9.49238042209275 0 0 0
313 1 16.396509617295333 5.501326262401951 11.011719027513578 0 0 0
288 1 20.298892782296363 4.190426853388308 12.22303390291176 0 0 0
292 1 2.6985924487958135 8.119306753441613 10.884385217104569 0 0 0
293 1 1.2932113152944062 6.931648641134357 12.436169301187395 0 0 0
167 1 4.125690478586498 6.712118049602438 9.442622709813776 0 0 0
300 1 8.093392154234992 8.082498314673405 10.97570219918807 0 0 0
301 1 6.7092864222191615 6.839532499169379 12.305911523289147 0 0 0
175 1 9.4229900662052 6.580656248857391 9.60290547368951 0 0 0
309 2 12.102715107405839 6.776132652593387 12.252021315182873 0 0 0
183 1 14.967769448853005 6.69921527643951 9.675354733041095 0 0 0
308 1 13.641070109497617 8.061967374562514 10.947393976806056 0 0 0
317 1 17.683485325618715 6.995424659566405 12.090118970890629 0 0 0
191 1 20.769273127068445 6.951393854854098 9.623737077602636 0 0 0
316 1 19.18424830633111 8.270330376221459 10.961668017348599 0 0 0
166 1 1.4980512203724938 9.49511045764176 9.468232746940432 0 0 0
321 1 0.04713334597280417 10.862575139305282 10.935295500158137 0 0 0
325 1 1.2657233403727246 12.44967730052793 12.272310727749181 0 0 0
199 1 4.115094748665826 12.179211592968075 9.642719381700706 0 0 0
296 1 3.9798618481741053 9.664759104936465 12.174824204377211 0 0 0
329 1 5.486629128137976 10.929228421775061 10.893710183235278 0 0 0
174 1 6.858151296255229 9.51572237939455 9.55294336568472 0 0 0
333 1 6.8819009995288205 12.387121406327175 12.086570204963724 0 0 0
182 1 12.4119952269672 9.574728238440114 9.502629166141704 0 0 0
207 1 9.584800808753531 12.331555083822316 9.54894839075911 0 0 0
304 1 9.507452648686032 9.423784939616574 12.011334600765151 0 0 0
337 1 10.947063153829788 10.847516793878961 10.884332176596908 0 0 0
341 1 12.364975435571521 12.167342567454527 12.28102615445898 0 0 0
215 1 14.722876349428251 12.21257917884014 9.636937068248955 0 0 0
312 1 14.784999029440042 9.57765170887663 12.199822886817708 0 0 0
190 1 17.711966148958012 9.439148804546893 9.546570451150862 0 0 0
345 1 16.24494056816723 10.88276357335208 10.838857295475568 0 0 0
349 1 17.678128852328054 12.103431823370284 12.23274106233783 0 0 0
223 1 20.45284148197575 12.239224197953018 9.661435177912203 0 0 0
320 1 20.484353524028833 9.53398898630626 12.382493105546994 0 0 0
198 1 1.2411837723183672 15.029379900542382 9.533988956946843 0 0 0
324 1 2.6311962338160684 13.611708919904627 10.767122702204247 0 0 0
328 1 4.237235651267796 14.794987347668046 12.172323005093881 0 0 0
206 1 6.818805854781395 14.887440843669015 9.37526370443871 0 0 0
332 1 8.283959992292855 13.735465040546469 10.716924870885784 0 0 0
214 1 12.270187398649494 15.00634106477658 9.431267661298572 0 0 0
336 1 9.593262316942216 15.10697993277507 12.194797392952395 0 0 0
340 1 13.560207439285653 13.712710584156763 11.027312657281941 0 0 0
344 2 14.808771105572966 15.020876796086458 12.439779021719291 0 0 0
222 1 17.557851435258556 14.842876022969673 9.602449353407673 0 0 0
348 1 19.17613893842549 13.577163339873522 10.998456267632582 0 0 0
352 1 20.34451473175479 14.968122005125794 12.415186738564195 0 0 0
353 1 21.66001587048835 16.46978489994036 10.988753753411252 -1 0 0
357 1 1.348420781086788 17.868182867426732 12.31761456163625 0 0 0
231 1 4.117099283782154 17.543380352361172 9.475315976699358 0 0 0
361 1 5.428239186819965 16.125613357983177 10.788008407991372 0 0 0
365 1 6.746727271984731 17.479233010819943 12.19156049204386 0 0 0
239 1 9.55486839940575 17.665231357765915 9.38568327907824 0 0 0
369 1 10.989779190891134 16.481446780285065 10.875619980977506 0 0 0
373 1 12.32367404246739 17.720708820988285 12.2751454438534 0 0 0
247 1 15.135099577097085 17.653654186728374 9.358861904540024 0 0 0
377 1 16.179515839972062 16.214127658083257 10.831856288585875 0 0 0
381 2 17.46695498685567 17.6435754023289 12.12289980924544 0 0 0
255 1 20.355950456896945 17.722210202217553 9.456916850604653 0 0 0
230 1 1.3799435879580426 20.620556820729007 9.591118640494031 0 0 0
356 1 2.822929442189683 19.082966120636534 10.801295568293774 0 0 0
360 1 4.138189438010621 20.316673515743087 12.315323418177192 0 0 0
238 1 6.92437206635055 20.2087141105998 9.386370197478977 0 0 0
364 1 8.080242664686327 18.788210857552656 10.80791555926809 0 0 0
246 1 12.39279158289436 20.54139965094581 9.404540209127523 0 0 0
368 1 9.536550116543674 20.262678835816427 12.112947297901774 0 0 0
372 1 13.707687816653916 19.06379572577773 10.785970959376103 0 0 0
376 1 14.82081264499249 20.49059391130405 12.232283216098503 0 0 0
254 1 17.65252539744646 20.228819516427954 9.576143506414484 0 0 0
380 1 18.941017775706467 18.90402150208157 10.951778522803624 0 0 0
384 1 20.482378170951336 20.466454624929753 12.23897391446344 0 0 0
258 1 21.707084798678736 2.641897062968956 13.541441838039113 -1 0 0
259 1 2.8522711744777016 0.004522458278168371 13.614763038044755 0 0 0
263 1 4.173027709083104 1.4329988679317711 15.131940495234458 0 0 0
266 1 5.487406082713274 2.5749318870228883 13.706791158236223 0 0 0
267 1 8.15988257574202 21.581637638592895 13.62048334339641 0 -1 0
271 1 9.58219281967858 1.2934354972987439 14.909702446600898 0 0 0
274 1 10.856606856076178 2.6856570034001552 13.68227914915888 0 0 0
275 1 13.537530533367475 0.14830543525524803 13.509152855326631 0 0 0
279 1 15.003515628856034 1.3247895984467033 15.072659984608135 0 0 0
282 1 16.378903656505756 2.7584259778077014 13.749009718972548 0 0 0
283 1 19.000082697903288 21.64970553883408 13.561256746106746 0 -1 0
287 1 20.367197360480386 1.2537201098820574 15.029166335334398 0 0 0
262 1 1.2874852934980894 4.0101927663390295 14.878938862567441 0 0 0
291 1 2.7105845387834875 5.493802027603608 13.543499129216329 0 0 0
270 1 6.737299262343125 4.026374802506942 15.034790879142797 0 0 0
299 1 8.063866207471596 5.4809989813846585 13.590338544416724 0 0 0
278 1 12.117337522778442 4.153647225714439 14.851262630092801 0 0 0
307 1 13.581368067774013 5.517250209621796 13.505074700987059 0 0 0
286 1 17.623215249479255 4.282863699966414 14.91757785412536 0 0 0
315 1 18.98030288097398 5.708577802307242 13.636092529250046 0 0 0
290 1 0.043185661582428876 8.21559232300258 13.830085244767293 0 0 0
295 1 3.7827579416107864 6.86156742535586 14.874710289343001 0 0 0
298 1 5.264044691942678 8.325480414418065 13.616421243661254 0 0 0
303 1 9.493569832484566 6.973806118260824 14.795506534126725 0 0 0
306 1 10.85443514095893 8.300491920868247 13.506298862859902 0 0 0
311 1 14.80949465448571 6.72509549249176 14.833603711290927 0 0 0
314 1 16.302525266766565 8.335531523353131 13.53992132409082 0 0 0
319 1 20.472172301861804 6.894289600589955 15.0706939635411 0 0 0
294 1 1.3919386253494137 9.730359204663108 14.97725296476492 0 0 0
323 1 2.6679643636100225 10.966350938862893 13.397590293926907 0 0 0
327 1 4.083006414916479 12.371076269784885 14.890168924118466 0 0 0
302 1 6.821093348847263 9.736407824282347 14.868056976857895 0 0 0
331 1 8.209146149173307 10.97124931158338 13.557990771439346 0 0 0
310 1 12.16573221033191 9.630532366314844 14.834100292005843 0 0 0
335 1 9.477839974134787 12.511342061990922 14.94650986294495 0 0 0
339 1 13.752091704309594 10.936310359200439 13.69601530412635 0 0 0
343 1 15.117366909290789 12.27087332810226 15.095872934875624 0 0 0
318 1 17.752113736531815 9.573938088679009 14.91663758383975 0 0 0
347 1 19.115397584536886 10.905305392972052 13.59357313589756 0 0 0
351 1 20.432386406564273 12.146557969401806 15.120378666198437 0 0 0
322 1 21.73588493864824 13.764177623319478 13.770218882835994 -1 0 0
326 1 1.4526395489792958 15.179542093876142 14.943863547492164 0 0 0
330 1 5.65961850484405 13.663879278407306 13.60811424764397 0 0 0
334 1 6.956693954259233 14.993885385790229 15.007510604697446 0 0 0
338 1 10.77271856991157 13.538028404631076 13.330783022714499 0 0 0
342 1 12.034493868202654 14.707369164152562 15.088283757578601 0 0 0
346 1 16.431208898338387 13.63804928501756 13.54092563427781 0 0 0
350 1 17.61022344937831 14.945162313263125 15.10662539829217 0 0 0
355 1 2.8856481201300785 16.18066252478092 13.405257108620484 0 0 0
359 1 4.177025678810308 17.734180629031748 14.975387271662752 0 0 0
363 1 8.225941376774067 16.304821114067476 13.525968310672459 0 0 0
367 1 9.519706796963627 17.52434609777299 14.917677321147629 0 0 0
371 1 13.559228939862187 16.43964597430504 13.875153230077506 0 0 0
375 1 14.934754777238654 17.779213768599487 15.10864306474645 0 0 0
379 1 18.867101961886632 16.366007412267994 13.533428742745556 0 0 0
383 1 20.30394750158931 17.82622849284075 14.793440453905218 0 0 0
354 1 21.611265966357717 19.303716029146244 13.6574283907403 -1 0 0
358 1 1.3083588669580852 20.427267305945964 14.92224591876738 0 0 0
362 2 5.395758159143236 18.864800526511882 13.452994695144001 0 0 0
366 1 6.624754462858758 20.323353492743756 14.893179668253214 0 0 0
370 1 10.770776432797453 19.093461556953258 13.555147542141722 0 0 0
374 1 12.319349938045589 20.461980402801302 14.931719622783984 0 0 0
378 1 16.160876989973467 19.121707645703896 13.531022992844184 0 0 0
382 1 17.540542690528397 20.338281071775324 14.909479529583031 0 0 0
385 1 0.10586350550394268 0.11401669188925068 16.231431638793314 0 0 0
388 1 2.7014911136034487 2.80647626505365 16.3908934803759 0 0 0
389 1 1.4248368066453603 1.3719567438669649 17.630651786106558 0 0 0
393 1 5.451347282118044 21.701411040240817 16.19637598253184 0 -1 0
396 1 8.15878152987024 2.609045267789462 16.27908768338003 0 0 0
397 1 6.925339284954735 1.2167909143622508 17.59279936891106 0 0 0
401 1 11.023736387858953 0.08726057817969261 16.382977501518635 0 0 0
405 1 12.419753142409666 1.4305305742288554 17.699265631148087 0 0 0
404 1 13.532213535220004 2.8688452073622552 16.23667863325479 0 0 0
409 1 16.342943525353576 21.66933333789317 16.389728539410545 0 -1 0
413 1 17.59041264276439 1.3358092595750002 17.636417691759448 0 0 0
412 1 19.15667624480954 2.857590866876603 16.211942859712792 0 0 0
417 1 0.08606504628311935 5.34362448036189 16.20189706199279 0 0 0
392 1 4.077563513823657 4.287201692450589 17.630814940939466 0 0 0
425 1 5.244874876523628 5.541547246763835 16.173628285783334 0 0 0
400 1 9.471093280818526 4.025283859814717 17.466737522657045 0 0 0
433 1 10.739373011018026 5.498935665365928 16.280268424040898 0 0 0
408 1 15.022189956389676 4.0113808626264165 17.76352952377081 0 0 0
441 1 16.136922568556358 5.538764905520681 16.385890330412813 0 0 0
416 1 20.554051965251794 4.172124065741885 17.53358569229397 0 0 0
420 1 2.680826407601892 8.247341469072175 16.434115662023583 0 0 0
421 1 1.327661238270037 6.75694098227941 17.634189245835337 0 0 0
428 1 8.102930283592139 8.305162688336486 16.15930904907387 0 0 0
429 1 6.884805505015974 6.947650408027596 17.56306621725019 0 0 0
437 1 12.101622862890908 6.932494924311676 17.885970995116356 0 0 0
436 1 13.290235238052325 8.115400528618334 16.049203088262477 0 0 0
445 1 17.531585582561956 6.996109052292076 17.76946710772811 0 0 0
444 1 18.970346546328337 8.175980035958899 16.31029376846094 0 0 0
449 1 21.717650574944237 10.826589954776347 16.361007928765535 -1 0 0
453 1 1.403810795829084 12.229428675035047 17.748978398549383 0 0 0
424 1 4.21819154774195 9.609546178333302 17.71365959042253 0 0 0
457 1 5.4628774996801726 11.12092115038807 16.325088174524225 0 0 0
461 1 6.924112067005769 12.27969542006932 17.787332985426332 0 0 0
432 1 9.390760511853301 9.61021035737987 17.481224102961164 0 0 0
465 1 10.862850047658679 11.071070510180899 16.305656572571724 0 0 0
469 1 12.045061913249674 12.15915839797222 17.84629819951665 0 0 0
440 1 14.691207717635129 9.723284034564339 17.51928406993695 0 0 0
473 2 16.31159407936128 10.975691153612525 16.33549442072283 0 0 0
477 1 17.710040996623505 12.194611767680993 17.80527816756431 0 0 0
448 1 20.392817524387088 9.49150893119962 17.83879946193444 0 0 0
452 1 2.6915157963264726 13.663197829690745 16.26639101672654 0 0 0
456 1 4.135886295239141 14.972378807875634 17.767091311162606 0 0 0
460 2 8.30707398148664 13.732090615825294 16.450358076056713 0 0 0
464 1 9.582382405720981 15.200052756201796 17.892858142558477 0 0 0
468 1 13.65721603025332 13.40540270345304 16.45066871404391 0 0 0
472 1 14.967762547064183 14.956772561893668 17.907382807823364 0 0 0
476 1 19.084447260859324 13.529874583838337 16.42746003901814 0 0 0
480 1 20.443005166891393 15.10294987951209 17.63841537870826 0 0 0
481 1 0.025318129426259536 16.483455477604267 16.26597001506108 0 0 0
485 1 1.2769463709583757 17.80389439592765 17.662325450280132 0 0 0
489 1 5.517799482729011 16.255122315372457 16.234346156669414 0 0 0
493 1 6.837623735362867 17.556649148008244 17.688848119354887 0 0 0
497 1 10.872414870448184 16.283594788923008 16.218193901327336 0 0 0
501 1 12.297550883662758 17.576389861554794 17.62129406213156 0 0 0
505 1 16.33254683104838 16.377334310757355 16.437694230707184 0 0 0
509 1 17.716745555758287 17.851973406577525 17.714614884075708 0 0 0
484 1 2.6163131606192915 19.09524517760291 16.11133870006103 0 0 0