LAMMPS data file via write_data, version 29 Aug 2024, timestep = 10000000, units = metal

512 atoms
2 atom types

0 21.75660358 xlo xhi
0 21.75660358 ylo yhi
0 21.75660358 zlo zhi

Masses

1 28.0855
2 12.011

Atoms # atomic

1 1 0.16400740316508503 0.09912828381279913 0.1216499173291611 0 0 0
2 1 21.508820911147392 2.75854280905938 2.840764391419722 -1 0 0
3 1 2.770978484940533 0.0024950854151984466 2.817909807235683 0 0 0
4 1 2.83978019707009 2.83742315388752 0.16725583051617124 0 0 0
5 1 1.4292036629313827 1.4978428801679766 1.5894286705369258 0 0 0
9 1 5.447544228356734 21.67614674879812 0.09286944327818318 0 -1 0
10 1 5.394780687789984 2.656529614691547 2.69805645536764 0 0 0
11 1 8.104809660079047 21.66341347496482 2.878310646269652 0 -1 0
12 1 8.132406815740087 2.435275934224728 0.11842012712834703 0 0 0
13 1 6.755632875485588 1.1999429840550166 1.4598006241287453 0 0 0
17 1 10.87352905397298 21.68433725834926 0.031468708522788595 0 -1 0
18 1 10.95933086360268 2.6181128942741263 2.749367409784177 0 0 0
21 1 12.312789299163846 1.1856603241562025 1.417556156400142 0 0 0
19 1 13.705671933941069 21.72102217297379 2.8789800163013757 0 -1 0
20 1 13.508546917405509 2.564205060125991 0.0854711622709917 0 0 0
25 1 16.183218034533883 0.0895174752468269 21.708442804464756 0 0 -1
26 1 16.242274852278573 2.6379835521982975 2.7099714651974294 0 0 0
29 1 17.634502470253214 1.388912502835011 1.2541706628511042 0 0 0
27 1 18.91259208107201 0.13894210515983882 2.5776007713557734 0 0 0
28 1 18.981389973978395 2.874573198758526 21.69746120598643 0 0 -1
33 1 0.011820392617579533 5.568590193334682 0.030449325666632984 0 0 0
35 1 2.639255053173259 5.41652044572199 2.819818308253489 0 0 0
8 1 4.130309754286191 4.112113497661145 1.3460984302891645 0 0 0
41 1 5.553476884852798 5.551633364464578 21.756212107596156 0 0 -1
43 1 8.187734477795157 5.408803729017566 2.7263249742359292 0 0 0
16 1 9.47970986205727 3.8886081785083912 1.3188152231785308 0 0 0
49 1 10.972388167871367 5.401000180994863 0.009294603363861368 0 0 0
24 1 14.937726618180442 4.002931380100349 1.3191789524538438 0 0 0
51 1 13.679248094981322 5.441242303489596 2.688755238154821 0 0 0
57 1 16.424262034126208 5.2798195671713115 21.710511640467853 0 0 -1
32 1 20.439293983013535 4.148300290335833 1.3227103059328325 0 0 0
59 1 19.11557803820999 5.570608089530378 2.643093081667349 0 0 0
34 1 21.750295818814337 8.400327962111215 2.9218681647176434 -1 0 0
36 1 2.759862476204704 8.259315272490074 0.17734667388997424 0 0 0
37 1 1.2203709912767884 6.912357649499393 1.3865616831752743 0 0 0
42 1 5.501188204143333 8.475284297150015 2.548077087038859 0 0 0
44 1 8.270707646624418 8.182278546642555 21.643360714693955 0 0 -1
45 1 6.805570609649206 6.846715968434623 1.4570420757199745 0 0 0
50 1 10.787336294339902 8.012937382873353 2.5878857950109926 0 0 0
53 1 12.2441565822251 6.746763841450213 1.2414534798137908 0 0 0
52 1 13.641321438630397 8.129499607540358 21.655129638123643 0 0 -1
58 1 16.29582901291084 8.035978729605612 2.69522740858045 0 0 0
61 1 17.691326010278896 6.73523941656808 1.3945840564733338 0 0 0
60 1 19.049811671295274 8.34866570033364 0.1874674186536759 0 0 0
65 1 0.014911922492306913 10.972491507212377 0.07493162072539811 0 0 0
67 1 2.634274119789832 10.969111280190768 2.6476198734213034 0 0 0
69 1 1.3466962668260898 12.347247092938526 1.1898283052429932 0 0 0
40 1 4.229164964129206 9.84614113813836 1.172154233253365 0 0 0
73 1 5.647318311957419 11.059841947885504 21.48393222252928 0 0 -1
75 1 8.151576474363022 10.964961139991868 2.9953631108038703 0 0 0
77 1 6.9545619516495085 12.133435244068625 1.3299576960964485 0 0 0
48 1 9.474677903687981 9.778524779980483 1.508315877927095 0 0 0
81 1 10.820044887269432 11.052513993913827 21.712758302874978 0 0 -1
85 1 12.277249391150796 12.284192575387246 1.340213768515262 0 0 0
56 1 14.714326239878805 9.418652170252386 1.3990558694310127 0 0 0
83 1 13.47946554994007 10.90800311860954 2.728824915657051 0 0 0
89 1 16.175975745337816 10.830680654899282 0.21002757569617497 0 0 0
93 1 17.64325753984958 12.23520798476382 1.464794938030189 0 0 0
64 1 20.50199145649683 9.685947321909286 1.6145499911246584 0 0 0
91 1 18.922883213162365 10.794325109732323 2.8679342224707716 0 0 0
66 1 21.498175574024952 13.522846957922305 2.5866853864807373 -1 0 0
68 1 2.6624965777742644 13.554375979597264 21.607503517256728 0 0 -1
72 1 4.174760068850532 14.723742807111856 1.3800568482836517 0 0 0
74 1 5.484282995044228 13.425238431698315 2.6514818718151445 0 0 0
76 1 8.0604563880556 13.622288821689606 21.54792522081421 0 0 -1
80 1 9.589315716017852 14.908963861143352 1.212782407352643 0 0 0
82 1 10.833668922555143 13.581595801783637 2.635842430799001 0 0 0
84 1 13.667991831862922 13.513354048683563 0.015428123774165683 0 0 0
88 1 15.030631903883597 14.85375424025112 1.461483084324602 0 0 0
90 1 16.29446348590477 13.667685359412655 2.7798736363530674 0 0 0
92 1 18.889495847672883 13.703376273188784 0.08721060276339675 0 0 0
96 1 20.384099274014357 15.185415514264083 1.234369948625327 0 0 0
97 1 21.73271870843208 16.464728164868863 0.027761874420106403 -1 0 0
99 1 2.629084542173727 16.107642901845406 2.7045674913456623 0 0 0
101 1 1.2780575282271827 17.759628461500952 1.4306273550494315 0 0 0
105 1 5.522368770117592 16.249491666920342 21.64733192923376 0 0 -1
107 1 8.226244595426994 16.193516969496773 2.6493615895796614 0 0 0
109 1 6.886825609114066 17.612218486247993 1.3240221071375688 0 0 0
113 1 11.038938831714589 16.194964126152662 0.01668492401637124 0 0 0
117 1 12.189104163087706 17.712068900622068 1.4521720211680966 0 0 0
115 1 13.62109987364364 16.342845429853277 2.666045390362568 0 0 0
121 1 16.291894254307202 16.34681142356722 0.02649170427145975 0 0 0
125 1 17.72003911685042 17.65451620641101 1.4773216601514052 0 0 0
123 1 19.04837992307058 16.452285007676494 2.7585559288762407 0 0 0
98 1 21.743828100204922 19.297096444245078 2.6997416148541915 -1 0 0
100 1 2.872752607692571 18.977084176359376 0.1495962881500846 0 0 0
104 1 4.177452596322683 20.303195160794015 1.5679611146878152 0 0 0
106 1 5.413010025213142 18.721062771854402 2.8412794244450983 0 0 0
108 1 8.095988683599284 18.973602848343926 21.71740231987749 0 0 -1
112 1 9.424679578601976 20.401502960777638 1.2818961807724687 0 0 0
114 1 10.852315040834654 19.244269077907514 2.5397773011165303 0 0 0
116 1 13.525184095711252 18.931229935522794 0.04662256258753423 0 0 0
120 1 14.84299655411655 20.320373216301306 1.2851625352590763 0 0 0
122 1 16.405103963759977 19.17632036674613 2.631236033601153 0 0 0
124 1 18.92489289202748 19.02960707237608 0.14026263510808784 0 0 0
128 1 20.35618801631348 20.60128248226121 1.1494112654727198 0 0 0
129 1 0.07560922571848067 0.11316448066525692 5.3976909470127605 0 0 0
132 1 2.4690455081983638 2.6832749807929717 5.478777406192936 0 0 0
7 1 3.9976658694823306 1.3520315744231897 4.059961959895144 0 0 0
137 1 5.326289970663214 21.640588563507094 5.377528685462461 0 -1 0
140 1 8.04683096607461 2.689910786387481 5.400846739487793 0 0 0
15 1 9.494955740389345 1.4274921816090054 4.094763501388476 0 0 0
145 1 10.757146378567207 0.19393389576473702 5.556514280528377 0 0 0
23 1 15.028903637332498 1.4532210347280827 4.192918104101067 0 0 0
148 1 13.479863570817944 2.717697264642081 5.475710721176082 0 0 0
153 1 16.413692655294106 21.742328492188758 5.528856376334065 0 -1 0
31 1 20.26601365356441 1.4059747623180008 4.211054450448382 0 0 0
156 1 18.99029949478202 2.7099885483749366 5.642343565726919 0 0 0
6 1 1.22765351504327 4.001976902959303 4.031174809702505 0 0 0
161 1 21.703635326099118 5.320058164357589 5.439081390761911 -1 0 0
169 1 5.324024060627384 5.700501040572535 5.413616266449235 0 0 0
14 1 6.768091085191985 4.119379504767932 3.995943497559048 0 0 0
22 1 12.27268976865641 4.082173384505228 3.9527273226430393 0 0 0
177 1 10.659109163455721 5.239768947922043 5.467754384110679 0 0 0
30 1 17.782723574679927 4.133934852750288 4.0719032622937466 0 0 0
185 1 16.300416262487236 5.6015130571738645 5.421821176571354 0 0 0
164 1 2.6521317208847304 8.299581245268312 5.581780712256074 0 0 0
39 1 4.037876945519795 7.117021112392912 3.9011795686409783 0 0 0
172 1 8.226529346724682 8.099215810837878 5.468796997961585 0 0 0
47 1 9.566945719689969 6.870178337339201 4.016366758922814 0 0 0
55 1 14.977459483014705 6.808265189853967 4.040511184304604 0 0 0
180 1 13.550782583664992 8.17770965561313 5.312439501659613 0 0 0
63 1 20.45218930731859 6.871036017134787 4.231584201435681 0 0 0
188 1 19.074698145500452 8.106808051042776 5.53228758368071 0 0 0
38 1 1.3474478201079838 9.671450365519114 4.227608415746538 0 0 0
193 1 21.694458679452392 10.935213357106596 5.602722307289367 -1 0 0
71 1 3.9984696527148658 12.252771653563226 4.135508123138301 0 0 0
201 1 5.481617490121526 10.872062671494145 5.323661759201509 0 0 0
46 1 6.892999432919606 9.471323187657523 4.106406615258531 0 0 0
54 1 12.056739132806175 9.454211869080666 4.154430594249315 0 0 0
79 1 9.533570030534033 12.460291157105164 4.323700783541998 0 0 0
209 1 10.701547213544414 10.90631421498569 5.526760131259083 0 0 0
87 1 15.066846780385875 12.137577856310948 4.0510807211815605 0 0 0
62 1 17.473339265559012 9.414479521763676 4.142252287185329 0 0 0
217 1 16.208366029574876 10.756320492012945 5.5335291956422825 0 0 0
95 1 20.26526661383263 12.151570155352243 4.196184296439974 0 0 0
70 1 1.3016800623496616 14.709566946741447 4.057735386300607 0 0 0
196 1 2.7249697570219844 13.526826841169493 5.556983775044183 0 0 0
78 1 6.788047806489381 14.894740238586865 4.098212672750986 0 0 0
204 1 8.129499367612175 13.647522043571936 5.594100389954978 0 0 0
86 1 12.140300820493044 14.956664723295948 4.050282211573058 0 0 0
212 1 13.615579307214926 13.644468613027927 5.331307246784462 0 0 0
94 1 17.750327668435 14.970204172122445 4.207775188311558 0 0 0
220 1 19.05529528104491 13.58653653243322 5.53287813900915 0 0 0
225 1 21.62470224066783 16.264221704555386 5.266211385510142 -1 0 0
103 1 4.011978963052859 17.38918998388021 4.120116768799065 0 0 0
233 1 5.554191338213521 16.257122447631584 5.590421454645073 0 0 0
111 1 9.615245048435266 17.665969929770796 3.684857513164069 0 0 0
241 1 10.953507829196274 16.46794420299485 5.372285593819639 0 0 0
119 1 15.08291463032282 17.77140226341251 3.868943529259999 0 0 0
249 1 16.378274661274098 16.366085710418474 5.309095940765668 0 0 0
127 1 20.505704152215845 17.811808095540634 4.056921007669278 0 0 0
102 1 1.4260634316616658 20.464853346836716 4.1161414984571145 0 0 0
228 1 2.694932731084262 18.847032618223274 5.372311507670718 0 0 0
110 1 6.711456430167611 20.197111858132235 4.209991211332168 0 0 0
236 1 8.23724533101583 18.863264419169376 5.372729404288085 0 0 0
118 1 12.062026209353114 20.47416685263455 4.062251236158343 0 0 0
244 1 13.643315958423829 19.061477826998743 5.411775522935538 0 0 0
126 1 17.818710777513612 20.51532661083069 4.134502296484532 0 0 0
252 1 19.095313726155634 19.056769614835154 5.276415109830294 0 0 0
130 1 21.731074579773725 2.703637515646419 8.363064609303152 -1 0 0
131 1 2.77333678052375 21.753471054257833 8.133367860375783 0 -1 0
133 1 1.3098150023315525 1.2970082608505595 6.91803944015048 0 0 0
138 1 5.357038177920053 2.7077022195025733 7.9898665449162865 0 0 0
139 1 8.02598040558838 21.66604152851103 8.202735714563747 0 -1 0
141 1 6.769555133014406 1.2322372180774273 6.604926668355603 0 0 0
146 1 10.615186181180583 2.7974033106501137 8.148399754592575 0 0 0
149 1 12.205738732662578 1.4733929290484378 6.9314035729078975 0 0 0
147 1 13.43201445249529 21.583302642027345 8.107837180631044 0 -1 0
154 1 16.143052419976993 2.5638796901453134 8.215985564168713 0 0 0
157 1 17.682334586993267 1.392677753383417 7.029317606866554 0 0 0
155 1 19.17318972136313 0.06702506389832576 8.248692667638903 0 0 0
163 1 2.603300240365637 5.415998808042126 8.274100462101584 0 0 0
136 2 3.8622282492924196 4.122620715590058 6.661622227718371 0 0 0
171 1 8.093216429082283 5.4032785451955485 8.22524496904404 0 0 0
144 1 9.262470560120207 4.0128171575744265 6.82914482293898 0 0 0
152 1 14.922645728492974 4.079725697728047 6.746732655910894 0 0 0
179 1 13.495832312211801 5.2923606551400315 8.105765934020205 0 0 0
160 1 20.36759108761678 4.031610354727867 6.952423531222225 0 0 0
187 1 18.924034942391593 5.3212568099664805 8.19687594040274 0 0 0
162 1 21.744355607294896 8.071134834266044 8.249934283946793 -1 0 0
165 1 1.2279926881815015 6.707925617202597 6.784778437150864 0 0 0
170 1 5.414860716516329 8.158425928304093 8.094651802761721 0 0 0
173 1 6.86215653807621 6.658267273148044 6.888109333984085 0 0 0
178 1 10.931798058982311 8.021356905458811 8.12975634763494 0 0 0
181 1 12.19592485328953 6.5963509139159004 6.657338846368799 0 0 0
186 1 16.31733573181641 8.070219938263604 8.22466811933843 0 0 0
189 1 17.59665681083467 6.756069550349457 6.956145391144115 0 0 0
195 1 2.686461538033778 11.089648095412642 8.258947556396437 0 0 0
197 1 1.2526536125985321 12.188258163251954 6.950703969337783 0 0 0
168 1 4.01666372231925 9.744254739484905 6.8490800546284625 0 0 0
203 1 7.9546554318651586 10.840529316344128 8.153316661969724 0 0 0
205 1 6.7832272721663545 12.162070460160582 6.83452533672506 0 0 0
176 1 9.489869776031206 9.494417716295427 6.929079481524799 0 0 0
213 1 12.318054421679905 12.1145622855238 6.751847548768837 0 0 0
184 1 14.963871312938428 9.366792071320274 6.734222941310962 0 0 0
211 1 13.796534775276088 10.72116321987243 8.285685266565432 0 0 0
221 1 17.73366349212709 12.126656774647246 6.979008406266137 0 0 0
192 1 20.216740402839733 9.35049958658935 6.987655181016316 0 0 0
219 1 19.00725380805148 10.748883441728506 8.426246567112955 0 0 0
194 1 21.700319756549238 13.572870314424053 8.25360019406191 -1 0 0
200 1 4.168117475381485 14.8159547291886 6.912627139999299 0 0 0
202 1 5.497841915384242 13.53803407236716 8.275181953805502 0 0 0
208 1 9.677997851064356 15.023644212809748 6.71550218322164 0 0 0
210 1 10.914164128259676 13.530630152201896 7.982826618082997 0 0 0
216 1 14.8866650725852 14.918796741185188 6.646742839348681 0 0 0
218 1 16.28074130617883 13.607087914496773 8.072122295892674 0 0 0
224 1 20.408143655568654 14.958657629581346 6.751446678395101 0 0 0
227 1 2.81985943319268 16.19916320347079 8.329938173714632 0 0 0
229 1 1.4870226024231927 17.294537614933905 6.69124806470025 0 0 0
235 1 8.33170188393162 16.125798516977948 8.186169309515739 0 0 0
237 1 7.045690688616371 17.66961007093489 6.8181377767961555 0 0 0
245 1 12.267874655439302 17.541408856063665 6.715940048063769 0 0 0
243 1 13.593407275671495 16.278205686253422 8.043173457802233 0 0 0
253 1 17.559996191517698 17.755179332571807 6.7085264431223415 0 0 0
251 1 19.036106564913265 16.41858558388009 8.023830541966744 0 0 0
226 1 0.20128760463639786 18.968401758768106 7.821326008033599 0 0 0
232 1 4.017747012323357 20.158778511923554 6.778124531256602 0 0 0
234 1 5.509492748852458 19.05658752397464 8.16925038651048 0 0 0
240 1 9.465430833041674 20.296912500896465 6.818488997484398 0 0 0
242 1 10.85192132373778 18.952086144265124 8.08353484633465 0 0 0
248 1 14.847367512498726 20.298600677864528 6.781527585601324 0 0 0
250 1 16.30245898088189 19.134696616061788 8.128782733636353 0 0 0
256 1 20.460673799674467 20.508339646834415 6.707417561507605 0 0 0
257 1 0.05753860771148618 0.03658195586953773 10.81684337206415 0 0 0
260 1 2.8636842863145775 2.750063439425542 10.940737739143014 0 0 0
261 1 1.4376315555670969 1.4216642728441677 12.206553778355975 0 0 0
135 1 4.135133698630173 1.3647919681671623 9.5780766569392 0 0 0
265 1 5.438222813398473 21.712084769933096 10.869401677211437 0 -1 0
268 1 8.033580236073307 2.7546633140496675 10.815795308848916 0 0 0
269 1 6.808947124183342 1.2613919112342475 12.27524972524723 0 0 0
143 1 9.421843125563772 1.2992272085926322 9.668472048516403 0 0 0
273 1 10.765092927249809 21.583593643751616 10.822612684516388 0 -1 0
277 1 12.177088586958911 1.3947903465494085 12.209033958888694 0 0 0
151 1 14.68308066262279 1.3250363642279746 9.451684040092218 0 0 0
276 1 13.40678664962549 2.8355000845549574 10.816577004325598 0 0 0
281 1 16.06833816177016 21.69691410113821 10.83223550914253 0 -1 0
285 1 17.438847245103233 1.429443377695393 12.089911790558212 0 0 0
159 1 20.34105866146052 1.4433961771571397 9.71804496116402 0 0 0
284 1 18.854960856142178 2.7962617134185432 10.78562423323411 0 0 0
134 1 1.3670453880883113 4.0408277420560985 9.669335637342046 0 0 0
289 1 21.66140425134935 5.409714211158241 10.819028368504732 -1 0 0
264 1 4.219040520668435 4.0325847977465905 12.338026321968396 0 0 0
297 1 5.489435991659944 5.441033934934232 10.938441922405183 0 0 0
142 1 6.636048804206962 4.145911788573662 9.454934333416912 0 0 0
150 1 11.929265860632018 4.075400752928784 9.385960044571648 0 0 0
272 1 9.50787752138011 4.060207360823848 12.269947851014885 0 0 0
305 1 10.781784689595145 5.467026682578569 11.029673374820899 0 0 0
280 1 14.866716843178473 4.127669839043191 12.165224539053325 0 0 0
158 1 17.477308539542364 4.160457616862421 9.517988102690518 0 0 0
313 1 16.214799188541257 5.528983651429658 10.897651710907967 0 0 0
288 1 20.31599859352684 4.019817173341795 12.289876601813265 0 0 0
292 1 2.7071066641421915 8.106046937362104 10.89165774979476 0 0 0
293 1 1.3876284007793 6.552506535016916 12.26483797506767 0 0 0
167 1 4.1093949665152865 6.769419802158234 9.435451021477684 0 0 0
300 1 8.209678839961038 8.392083390955468 10.759494163225192 0 0 0
301 1 6.9764677174366 6.83459824827186 12.158060354693013 0 0 0
175 1 9.54160426152352 6.86357793510757 9.505983968082917 0 0 0
309 1 12.364146544570971 6.76720283497303 12.327008099968765 0 0 0
183 1 14.960617670640604 6.717190637790827 9.469727828337014 0 0 0
308 1 13.57928864146239 8.057092208587594 10.927030159021951 0 0 0
317 1 17.56064322349632 6.866376931886821 12.431336126948073 0 0 0
191 1 20.27414734021355 6.779084465094083 9.505876535509685 0 0 0
316 1 19.007017882661223 8.149232021124593 10.987466213478012 0 0 0
166 1 1.460581378772156 9.665614276400673 9.483380704442293 0 0 0
321 1 0.08222858686776711 10.843528194393429 11.08738913575828 0 0 0
325 1 1.442025275343823 12.22099962519236 12.298103191626387 0 0 0
199 1 4.281783878630967 12.122244782623348 9.628465235153302 0 0 0
296 1 4.019182542998258 9.40149994910748 12.341841779900987 0 0 0
329 1 5.416457732518755 10.70680627528635 10.966431197707953 0 0 0
174 1 6.644477650020961 9.554285370611886 9.430022720722173 0 0 0
333 1 6.868014441343498 12.107868213880781 12.203779526137838 0 0 0
182 1 12.251612229727929 9.359274110904064 9.572687812789232 0 0 0
207 1 9.559523384179778 12.199808537846543 9.354595801671627 0 0 0
304 1 9.518260001907183 9.736934518299774 12.088806428162792 0 0 0
337 1 10.946735811538746 10.909777262772586 10.761734462831376 0 0 0
341 1 12.252758557048143 12.384654199209924 12.246431559344446 0 0 0
215 1 15.018917258038055 12.210820603841428 9.562012329745274 0 0 0
312 1 14.95626704643918 9.400411145492967 12.282051464209069 0 0 0
190 1 17.639636044307252 9.392725549290942 9.715447978204367 0 0 0
345 1 16.240631024613474 10.792026865140858 11.063874790158293 0 0 0
349 1 17.711869986939103 12.204380795990827 12.292541044298844 0 0 0
223 1 20.464216294929034 12.22381059329042 9.56885403012029 0 0 0
320 1 20.30179678239023 9.497058240736619 12.326962853537498 0 0 0
198 1 1.3884544128016045 14.904403121234674 9.669089166022241 0 0 0
324 1 2.9455153977530215 13.597011721202765 10.937003734915642 0 0 0
328 1 4.210734910662031 15.011656442866093 12.286997715662096 0 0 0
206 1 6.9918626062402405 14.905780593699125 9.643491362109406 0 0 0
332 1 8.252097227814188 13.528925178128757 10.970199212802646 0 0 0
214 1 12.31752141379615 14.742086982477645 9.381593123600949 0 0 0
336 1 9.529215832104235 14.780748040642296 12.282507903988389 0 0 0
340 1 13.644353040450781 13.50606846895003 11.009961525769345 0 0 0
344 1 14.877188058746256 15.026678484360223 12.09367035533852 0 0 0
222 1 17.755527346218376 15.025228310255839 9.410610326362653 0 0 0
348 1 19.15989549805073 13.59837145270899 10.922344093356235 0 0 0
352 1 20.50512773332261 14.970495713990923 12.170109013852475 0 0 0
353 1 0.07950210820338735 16.37373742099904 10.885491849168869 0 0 0
357 1 1.2452702424063629 17.8170771058666 12.262098615623632 0 0 0
231 1 4.3125793281492735 17.665249203354524 9.499901505849852 0 0 0
361 1 5.654807353901016 16.194048044438322 10.830186614364736 0 0 0
365 1 6.761867777433059 17.63452046582072 12.285985485292313 0 0 0
239 1 9.675238040029578 17.56633501542094 9.353659276228122 0 0 0
369 1 10.91026542829634 16.053547366546507 10.774440846550801 0 0 0
373 1 12.123382391743807 17.532604378891005 12.036328189622278 0 0 0
247 1 14.988089291212361 17.637526662978388 9.391741830220244 0 0 0
377 1 16.30278909680498 16.403698240026436 10.85506735069674 0 0 0
381 1 17.770340201803002 17.76605009436285 12.068051817975666 0 0 0
255 1 20.520022878249165 17.824475098301374 9.327110928145704 0 0 0
230 1 1.3913103745870972 20.402734393748194 9.397839437398295 0 0 0
356 1 2.8271243864909765 19.044933303320576 10.83983234027285 0 0 0
360 1 4.144109383421918 20.423700393363063 12.271095815043426 0 0 0
238 1 6.813869786387396 20.34281661432612 9.584685116388282 0 0 0
364 1 8.221670311363415 18.76411919509011 10.796624456185512 0 0 0
246 1 12.078526276753466 20.271156625915783 9.525162857768521 0 0 0
368 1 9.485686578280173 20.188682965732927 12.223072048276197 0 0 0
372 1 13.539775815867012 18.836900801246916 10.775140973105989 0 0 0
376 1 14.855726077080211 20.27857408357575 12.212114840461158 0 0 0
254 1 17.713973284699257 20.480187697778703 9.579550197915285 0 0 0
380 1 19.113456862528032 19.03554519370967 10.690692475620617 0 0 0
384 1 20.419744450425313 20.473331084611573 12.09117450905117 0 0 0
258 1 0.02868842664738764 2.6558640842995667 13.619038583073804 0 0 0
259 1 2.7984062593235657 0.2110038740011181 13.529064381668956 0 0 0
263 1 4.232883915809881 1.3307154201868259 15.021084092084674 0 0 0
266 1 5.478734208155247 2.574585809701524 13.57684810196713 0 0 0
267 1 8.22705588881079 21.73676346022358 13.518536987349945 0 -1 0
271 1 9.654398572366608 1.288799452213657 15.016073547989246 0 0 0
274 1 10.783948069753746 2.6820912830138486 13.582212901914883 0 0 0
275 1 13.604812882279113 0.14857359079423255 13.50517682661477 0 0 0
279 1 14.859575799444896 1.447577465813093 15.00353946573453 0 0 0
282 1 16.152787824023214 2.7438372840099166 13.657246678735893 0 0 0
283 1 18.958130266656106 0.008765072632310496 13.374156204983514 0 0 0
287 1 20.28495222664996 1.2761706350050757 14.904779170013 0 0 0
262 1 1.3098554406628689 4.026544939210489 14.971600079855522 0 0 0
291 1 2.876583630185016 5.29519842341777 13.748794797273167 0 0 0
270 1 6.731199408437742 4.184983874473123 14.763804484518607 0 0 0
299 1 8.200439314643821 5.415854995390451 13.670846382178965 0 0 0
278 1 12.158637741439403 4.1802689191865845 14.807621568142842 0 0 0
307 1 13.676453497320496 5.522732886934766 13.71431150808964 0 0 0
286 1 17.666240213226352 4.319474195381963 14.925970485137682 0 0 0
315 1 19.02952732287058 5.563664960692594 13.604235029035893 0 0 0
290 1 0.024856739637180457 8.03579727631895 13.421970922999636 0 0 0
295 1 4.181675551831881 6.8132116704372665 15.120909135869603 0 0 0
298 1 5.517068355548464 7.925810965315294 13.698669241729936 0 0 0
303 1 9.582171798792281 6.928447545261144 14.791453203688306 0 0 0
306 1 10.726278740832722 8.211736020652898 13.323557233782733 0 0 0
311 1 14.947373538581246 6.796303505736652 15.186600664611706 0 0 0
314 1 16.189446446720357 8.17061513247458 13.752741573053159 0 0 0
319 1 20.365444105605608 6.9629005648948965 14.933741566019041 0 0 0
294 1 1.2288306700385008 9.413738894234378 14.905548608531062 0 0 0
323 1 2.8583589987894134 10.733351568334767 13.710555421307674 0 0 0
327 1 4.088563637907324 12.195185411704722 14.934476382717929 0 0 0
302 1 6.787178460365407 9.358782177783903 15.071892809075708 0 0 0
331 1 8.151342485592062 10.563498330144137 13.783284844691869 0 0 0
310 1 12.068185198182782 9.506943835694674 14.718941294504152 0 0 0
335 1 9.306241796535856 12.19597926850348 14.961858633475597 0 0 0
339 1 13.556195616737739 10.745860039297828 13.350256626237403 0 0 0
343 1 14.867390711946 12.259517064755737 14.810425547807283 0 0 0
318 1 17.512243281614516 9.483049901988705 14.955811201930262 0 0 0
347 1 19.07845866789906 10.793385793149165 13.693587939835558 0 0 0
351 1 20.36053981453219 12.220035532283347 14.994399419030895 0 0 0
322 1 0.12784506951379682 13.583602615726821 13.653235570560224 0 0 0
326 1 1.4883025433689652 14.948285127152277 15.033895467572153 0 0 0
330 1 5.440684066013956 13.477181904906464 13.626552606423536 0 0 0
334 1 6.619437275209286 15.046849877462133 15.004914286978229 0 0 0
338 1 10.87284688889336 13.520246622231337 13.622746753082454 0 0 0
342 1 12.11841488491889 14.925073391403314 14.949477614726476 0 0 0
346 1 16.39635995470148 13.754931347715761 13.44776372575257 0 0 0
350 1 17.805528106363337 15.144810992617618 14.783461396567843 0 0 0
355 1 2.7147916483050216 16.37458597589052 13.569108221643036 0 0 0
359 1 3.9774994041690164 17.78493599468205 14.98664285816368 0 0 0
363 1 8.0768917747628 16.274883050059188 13.62385883993791 0 0 0
367 1 9.463532747457018 17.767240784361217 14.944024421575376 0 0 0
371 1 13.468513844159522 16.17207599956915 13.522660621179453 0 0 0
375 1 14.839130019650641 17.597072843584368 14.861209591614985 0 0 0
379 1 19.12130773301998 16.397619953303362 13.411573411616434 0 0 0
383 1 20.35750329971383 17.637961063950343 15.040584049211738 0 0 0
354 1 21.711126687429715 19.150278683433964 13.696862039017411 -1 0 0
358 1 1.3469832404454223 20.474145249958607 14.958893766910455 0 0 0
362 1 5.524206408575698 19.141068536467206 13.58201320112975 0 0 0
366 1 6.723512883843463 20.482461927299923 14.851839334577043 0 0 0
370 1 10.998347076255026 19.000435386768256 13.638024743570654 0 0 0
374 1 12.318312370049954 20.443929126586205 14.826377822273948 0 0 0
378 1 16.32038149842388 18.962761504448572 13.433376651521142 0 0 0
382 1 17.67878111753489 20.170207231481214 14.94566511041287 0 0 0
385 1 0.06835615318065638 0.07096478958134708 16.279337958680347 0 0 0
388 1 2.8846250781400866 2.661408715351447 16.367924322609184 0 0 0
389 1 1.258511500785706 1.3655565878539928 17.80878649735107 0 0 0
393 1 5.513625002979534 21.736105456351765 16.356035285045625 0 -1 0
396 1 8.254236932214743 2.788117547791027 16.188018716501976 0 0 0
397 1 6.839744491326694 1.4668238726564362 17.656319879434662 0 0 0
401 1 10.928173791093412 21.609634530816795 16.50706226689846 0 -1 0
405 1 12.454835319792242 1.3089896553021971 17.634903521369072 0 0 0
404 1 13.588735591999468 2.8712031975747507 16.265355571843266 0 0 0
409 1 16.47238471906035 21.716481934678836 16.275521710288153 0 -1 0
413 1 17.722136978748136 1.5333422993638106 17.546628221155313 0 0 0
412 1 19.015781141858447 2.8703249122878884 16.278269428213942 0 0 0
417 1 0.20869411512382952 5.506206922957629 16.29354239962167 0 0 0
392 1 4.257986852690219 4.080956022944459 17.727293977619073 0 0 0
425 1 5.547624995088622 5.478152344331994 16.3510426107544 0 0 0
400 1 9.57201433039008 4.091096846189632 17.61241596873079 0 0 0
433 1 10.756422432040688 5.5205379134905 16.07252148986019 0 0 0
408 1 14.740300827156114 4.07451597680597 17.70210159421111 0 0 0
441 1 16.264996380691795 5.474712958143336 16.55860258515613 0 0 0
416 1 20.505137549821438 4.188434964501257 17.475673089511787 0 0 0
420 1 2.6837414885954285 8.160615294761953 16.436657807740986 0 0 0
421 1 1.5154336708782463 6.981405116713442 17.906519325765295 0 0 0
428 1 8.206479267770698 8.075408718425404 16.24718913551559 0 0 0
429 1 6.975951176244614 6.768554898501947 17.753347863052372 0 0 0
437 1 12.003396327848032 6.7186338175292395 17.651651343740767 0 0 0
436 1 13.417427375855429 8.152285867130292 16.353364716812177 0 0 0
445 1 17.940675451511254 6.815236332378455 17.623839196663823 0 0 0
444 1 18.93752254986064 8.288805409642844 16.196782755562747 0 0 0
449 1 0.06728147825699694 10.797478110120032 16.413449232829205 0 0 0
453 1 1.3632677480041142 12.342637664647208 17.58397316649994 0 0 0
424 1 4.187501685596592 9.504369703003812 17.62967409889671 0 0 0
457 1 5.5212993597826925 10.899644734797544 16.32468680282838 0 0 0
461 1 6.857307710459652 12.292397754468505 17.70414575767574 0 0 0
432 1 9.68357504051081 9.450697121714322 17.514593605827862 0 0 0
465 1 10.913709270282562 11.036031304380293 16.218891295639178 0 0 0
469 1 12.229553765618055 12.29987003910364 17.662977519202094 0 0 0
440 1 14.879139818152828 9.545942117707396 17.504884798306083 0 0 0
473 1 16.220489542708155 10.937578999900968 16.315755636566013 0 0 0
477 1 17.851660055990557 12.175827737411845 17.576452649578897 0 0 0
448 1 20.307609729073548 9.409395762631785 17.835788271592662 0 0 0
452 1 2.763223983784733 13.587493382538991 16.428385516804585 0 0 0
456 1 4.11096379619002 15.05754471165177 17.655498198346514 0 0 0
460 1 8.008508594288344 13.661989683456044 16.204253498084974 0 0 0
464 1 9.51766345727971 14.964190177901655 17.636303532093837 0 0 0
468 1 13.496197896657527 13.642920130196964 16.28768341447529 0 0 0
472 1 14.906306071080166 14.967931437993146 17.543852505545985 0 0 0
476 1 19.074308923768875 13.7268667751138 16.331643030955284 0 0 0
480 1 20.433316687246528 15.144703026938132 17.672829047912373 0 0 0
481 1 0.04234511094021493 16.468530109823543 16.37962597019429 0 0 0
485 1 1.4784625713708595 17.72266019577303 17.6869599552824 0 0 0
489 1 5.465531600878832 16.53573992627416 16.52732740257054 0 0 0
493 1 6.900193335761513 17.914670636516814 17.85886487085305 0 0 0
497 1 10.802832916432859 16.438801292093594 16.32349245133344 0 0 0
501 1 12.216700837339197 17.733398434214585 17.80435873210435 0 0 0
505 1 16.393805175863395 16.34683287137895 16.25318102107335 0 0 0
509 1 17.73473855038639 17.72976231889047 17.526263861145548 0 0 0
484 1 2.741521707403802 19.165651659842588 16.241542182978655 0 0 0
488 1 4.059808334221938 20.462626257227807 17.74665242896633 0 0 0