LAMMPS (29 Aug 2024)
OMP_NUM_THREADS environment is not set. Defaulting to 1 thread. (src/comm.cpp:98)
  using 1 OpenMP thread(s) per MPI task

# C contaminant run: T1200K_C20 (T=1200.0 K, N_C=20)

units           metal
atom_style      atomic
boundary        p p p

read_data       starting_config_T1200K_C20.dat
Reading data file ...
  orthogonal box = (0 0 0) to (21.79363 21.79363 21.79363)
  1 by 1 by 1 MPI processor grid
  reading atoms ...
  512 atoms
  reading velocities ...
  512 velocities
  read_data CPU = 0.005 seconds

mass            1 28.0855
mass            2 12.011

pair_style      sw
# NOTE: currently treating C with same SW params as Si.
# For a true Si–C potential, replace the file and species labels here.
pair_coeff      * * Si.sw Si Si
Reading sw potential file Si.sw with DATE: 2007-06-11

neighbor        2.0 bin
neigh_modify    delay 0 every 1 check yes

timestep        0.001    # 1 fs

velocity        all create 1200.0 12345 mom yes rot yes dist gaussian

fix             f1 all nvt temp 1200.0 1200.0 $(100.0*dt)
fix             f1 all nvt temp 1200.0 1200.0 0.10000000000000000555

thermo_style    custom step temp pe ke etotal
thermo          10000

dump            d1 all custom 100 state_dump_T1200K_C20 id type x y z vx vy vz
dump_modify     d1 sort id

run             10000000   # 10 ns

CITE-CITE-CITE-CITE-CITE-CITE-CITE-CITE-CITE-CITE-CITE-CITE-CITE

Your simulation uses code contributions which should be cited:

- Type Label Framework: https://doi.org/10.1021/acs.jpcb.3c08419

@Article{Gissinger24,
 author = {Jacob R. Gissinger, Ilia Nikiforov, Yaser Afshar, Brendon Waters, Moon-ki Choi, Daniel S. Karls, Alexander Stukowski, Wonpil Im, Hendrik Heinz, Axel Kohlmeyer, and Ellad B. Tadmor},
 title = {Type Label Framework for Bonded Force Fields in LAMMPS},
 journal = {J. Phys. Chem. B},
 year =    2024,
 volume =  128,
 number =  13,
 pages =   {3282–-3297}
}

CITE-CITE-CITE-CITE-CITE-CITE-CITE-CITE-CITE-CITE-CITE-CITE-CITE

Neighbor list info ...
  update: every = 1 steps, delay = 0 steps, check = yes
  max neighbors/atom: 2000, page size: 100000
  master list distance cutoff = 5.77118
  ghost atom cutoff = 5.77118
  binsize = 2.88559, bins = 8 8 8
  1 neighbor lists, perpetual/occasional/extra = 1 0 0
  (1) pair sw, perpetual
      attributes: full, newton on
      pair build: full/bin/atomonly
      stencil: full/bin/3d
      bin: standard
Per MPI rank memory allocation (min/avg/max) = 3.119 | 3.119 | 3.119 Mbytes
   Step          Temp          PotEng         KinEng         TotEng    
         0   1200          -2220.0393      79.262321     -2140.777     
     10000   1232.4675     -2138.6179      81.40686      -2057.2111    
     20000   1123.7797     -2136.9747      74.227823     -2062.7469    
     30000   1197.1568     -2138.7012      79.074522     -2059.6267    
     40000   1243.4902     -2139.7732      82.134932     -2057.6382    
     50000   1219.1689     -2139.63        80.528461     -2059.1015    
     60000   1200.3618     -2141.2748      79.286219     -2061.9886    
     70000   1168.9497     -2134.1888      77.211385     -2056.9775    
     80000   1248.712      -2139.8193      82.479841     -2057.3394    
     90000   1221.0754     -2135.2061      80.654391     -2054.5517    
    100000   1238.4037     -2131.7574      81.798958     -2049.9585    
    110000   1193.4718     -2137.5737      78.831123     -2058.7426    
    120000   1235.4358     -2140.2713      81.602926     -2058.6684    
    130000   1150.7319     -2138.4162      76.008069     -2062.4081    
    140000   1189.3614     -2137.2521      78.559621     -2058.6925    
    150000   1151.0747     -2138.5964      76.030712     -2062.5657    
    160000   1205.8301     -2139.4827      79.64741      -2059.8353    
    170000   1210.0614     -2140.2075      79.926896     -2060.2806    
    180000   1202.8978     -2140.701       79.453723     -2061.2472    
    190000   1254.1206     -2137.3841      82.837088     -2054.547     
    200000   1227.447      -2137.4908      81.075248     -2056.4156    
    210000   1228.8435     -2137.3759      81.167489     -2056.2084    
    220000   1146.26       -2142.364       75.712693     -2066.6513    
    230000   1196.9506     -2131.414       79.060903     -2052.3531    
    240000   1157.6783     -2137.0451      76.466889     -2060.5782    
    250000   1185.3328     -2141.2475      78.293525     -2062.954     
    260000   1237.4581     -2139.2924      81.736501     -2057.5559    
    270000   1188.4464     -2139.3474      78.499185     -2060.8482    
    280000   1216.7756     -2132.4799      80.370384     -2052.1095    
    290000   1218.9793     -2139.7511      80.51594      -2059.2351    
    300000   1231.1045     -2138.1074      81.316832     -2056.7906    
    310000   1199.2976     -2128.2131      79.215927     -2048.9971    
    320000   1198.6861     -2142.2651      79.175534     -2063.0896    
    330000   1271.9737     -2131.6782      84.016324     -2047.6619    
    340000   1201.5254     -2141.7228      79.363079     -2062.3597    
    350000   1136.238      -2141.1072      75.050717     -2066.0564    
    360000   1225.6286     -2132.9746      80.95514      -2052.0194    
    370000   1167.0887     -2138.2529      77.088463     -2061.1644    
    380000   1154.2012     -2137.6863      76.237222     -2061.4491    
    390000   1214.8459     -2138.7742      80.242921     -2058.5313    
    400000   1177.7965     -2135.6452      77.795739     -2057.8495    
    410000   1207.0942     -2137.9149      79.730909     -2058.184     
    420000   1190.6397     -2136.8591      78.644055     -2058.215     
    430000   1216.0268     -2135.1279      80.320924     -2054.807     
    440000   1153.3805     -2136.3161      76.183013     -2060.1331    
    450000   1192.5528     -2137.8955      78.770419     -2059.1251    
    460000   1189.0026     -2136.1485      78.535922     -2057.6126    
    470000   1159.5251     -2134.5331      76.588877     -2057.9442    
    480000   1268.9706     -2139.9545      83.817963     -2056.1366    
    490000   1314.0747     -2138.8089      86.797173     -2052.0117    
    500000   1201.711      -2140.7347      79.375335     -2061.3594    
    510000   1141.8222     -2133.1418      75.419562     -2057.7222    
    520000   1195.4718     -2139.4039      78.963224     -2060.4407    
    530000   1187.1407     -2143.8791      78.412942     -2065.4661    
    540000   1178.0988     -2135.3975      77.815703     -2057.5818    
    550000   1154.7648     -2135.9413      76.274448     -2059.6668    
    560000   1164.8627     -2137.505       76.941437     -2060.5636    
    570000   1163.4768     -2139.9806      76.849894     -2063.1307    
    580000   1152.6256     -2137.6136      76.133151     -2061.4805    
    590000   1217.3435     -2135.4403      80.407893     -2055.0325    
    600000   1200.3564     -2135.9228      79.285861     -2056.6369    
    610000   1210.29       -2133.9449      79.941996     -2054.0029    
    620000   1238.1867     -2133.454       81.784629     -2051.6693    
    630000   1146.5621     -2135.5557      75.732646     -2059.823     
    640000   1214.3473     -2138.5233      80.209988     -2058.3133    
    650000   1211.3014     -2140.2496      80.008797     -2060.2408    
    660000   1249.2736     -2134.3111      82.516934     -2051.7941    
    670000   1183.9217     -2140.4836      78.200316     -2062.2833    
    680000   1198.6495     -2139.3731      79.173116     -2060.1999    
    690000   1254.8158     -2130.0235      82.883008     -2047.1405    
    700000   1147.4123     -2135.9496      75.7888       -2060.1608    
    710000   1168.463      -2141.1839      77.179243     -2064.0047    
    720000   1252.4786     -2134.8803      82.728633     -2052.1517    
    730000   1220.4417     -2134.4868      80.612532     -2053.8743    
    740000   1247.3439     -2137.3593      82.389474     -2054.9698    
    750000   1210.1409     -2138.4469      79.932149     -2058.5148    
    760000   1164.4037     -2136.5715      76.911115     -2059.6604    
    770000   1274.2065     -2137.2823      84.163803     -2053.1185    
    780000   1122.8213     -2138.1839      74.164517     -2064.0194    
    790000   1205.6997     -2134.8273      79.638798     -2055.1885    
    800000   1142.2167     -2136.5112      75.445624     -2061.0656    
    810000   1215.2506     -2130.7024      80.269655     -2050.4327    
    820000   1199.1704     -2130.8548      79.207521     -2051.6473    
    830000   1239.4861     -2130.2641      81.870457     -2048.3936    
    840000   1201.8396     -2137.5245      79.383831     -2058.1407    
    850000   1141.3574     -2135.2866      75.388861     -2059.8977    
    860000   1217.6193     -2136.576       80.426111     -2056.1499    
    870000   1264.187      -2139.1619      83.501996     -2055.6599    
    880000   1214.7705     -2133.9099      80.237942     -2053.672     
    890000   1075.0473     -2131.8659      71.008954     -2060.8569    
    900000   1265.209      -2136.1861      83.5695       -2052.6166    
    910000   1161.7955     -2133.0441      76.73884      -2056.3052    
    920000   1220.3849     -2138.7133      80.608782     -2058.1046    
    930000   1192.8283     -2138.4804      78.788618     -2059.6918    
    940000   1202.9236     -2137.2688      79.455429     -2057.8134    
    950000   1158.4957     -2136.9771      76.52088      -2060.4562    
    960000   1205.4565     -2138.8866      79.622734     -2059.2639    
    970000   1295.8114     -2135.333       85.590852     -2049.7421    
    980000   1229.8313     -2134.1529      81.232737     -2052.9202    
    990000   1179.1477     -2135.8865      77.884987     -2058.0015    
   1000000   1227.3576     -2134.6687      81.069345     -2053.5994    
   1010000   1223.0324     -2132.3709      80.783655     -2051.5872    
   1020000   1156.2281     -2136.7241      76.371099     -2060.353     
   1030000   1117.2851     -2134.668       73.798839     -2060.8692    
   1040000   1211.1384     -2139.3152      79.998032     -2059.3171    
   1050000   1161.1583     -2141.7596      76.696755     -2065.0629    
   1060000   1229.9801     -2140.0047      81.242561     -2058.7622    
   1070000   1214.8752     -2130.6427      80.244856     -2050.3979    
   1080000   1244.5351     -2134.7957      82.203952     -2052.5917    
   1090000   1303.6705     -2134.7487      86.109959     -2048.6387    
   1100000   1097.4899     -2133.0771      72.491331     -2060.5858    
   1110000   1193.2164     -2135.3498      78.814248     -2056.5356    
   1120000   1217.1723     -2140.1649      80.396585     -2059.7683    
   1130000   1212.8442     -2131.4314      80.110706     -2051.3207    
   1140000   1292.7195     -2138.8331      85.386623     -2053.4465    
   1150000   1170.3993     -2134.6168      77.307137     -2057.3097    
   1160000   1175.4585     -2136.8525      77.641308     -2059.2112    
   1170000   1237.1545     -2141.4345      81.716449     -2059.718     
   1180000   1240.3154     -2139.8673      81.925233     -2057.9421    
   1190000   1200.4185     -2138.2741      79.289963     -2058.9841    
   1200000   1259.9224     -2134.0773      83.220309     -2050.857     
   1210000   1189.3544     -2145.1937      78.559161     -2066.6345    
   1220000   1162.1738     -2135.658       76.763826     -2058.8942    
   1230000   1253.7213     -2132.2608      82.810716     -2049.45      
   1240000   1245.7771     -2135.964       82.285987     -2053.678     
   1250000   1159.577      -2141.7867      76.592302     -2065.1944    
   1260000   1204.5976     -2132.5287      79.566004     -2052.9627    
   1270000   1219.9126     -2134.3749      80.577587     -2053.7973    
   1280000   1172.9692     -2139.4334      77.476882     -2061.9565    
   1290000   1158.9273     -2143.1131      76.549392     -2066.5637    
   1300000   1234.3425     -2139.2207      81.530709     -2057.69      
   1310000   1182.6163     -2136.7608      78.114095     -2058.6467    
   1320000   1227.2383     -2137.3436      81.061464     -2056.2822    
   1330000   1229.9692     -2139.8934      81.241846     -2058.6515    
   1340000   1238.2246     -2135.7294      81.787132     -2053.9422    
   1350000   1144.004      -2132.3272      75.563674     -2056.7635    
   1360000   1178.0462     -2140.1928      77.812232     -2062.3805    
   1370000   1138.2107     -2141.3352      75.181018     -2066.1542    
   1380000   1213.1956     -2140.7274      80.133916     -2060.5935    
   1390000   1253.405      -2139.389       82.789827     -2056.5992    
   1400000   1195.8834     -2137.928       78.990409     -2058.9376    
   1410000   1197.3034     -2132.8126      79.084207     -2053.7284    
   1420000   1282.3387     -2139.1899      84.700954     -2054.4889    
   1430000   1168.5579     -2132.7425      77.185511     -2055.557     
   1440000   1193.6967     -2133.8097      78.845978     -2054.9638    
   1450000   1165.2106     -2137.3757      76.964417     -2060.4113    
   1460000   1287.721      -2136.4057      85.056465     -2051.3493    
   1470000   1143.3379     -2138.1768      75.519682     -2062.6572    
   1480000   1148.652      -2134.2753      75.870688     -2058.4046    
   1490000   1217.8267     -2135.3709      80.439807     -2054.9311    
   1500000   1210.496      -2135.7756      79.955605     -2055.82      
   1510000   1103.7822     -2133.5306      72.906948     -2060.6237    
   1520000   1093.8771     -2137.1973      72.252697     -2064.9446    
   1530000   1175.5381     -2132.0129      77.646566     -2054.3663    
   1540000   1290.6868     -2135.4932      85.252358     -2050.2408    
   1550000   1247.6056     -2131.551       82.406762     -2049.1442    
   1560000   1212.6805     -2138.2267      80.099891     -2058.1268    
   1570000   1195.8495     -2136.5459      78.988175     -2057.5577    
   1580000   1175.8869     -2139.1601      77.669602     -2061.4905    
   1590000   1192.7581     -2138.6104      78.783981     -2059.8264    
   1600000   1206.3213     -2134.8272      79.679858     -2055.1474    
   1610000   1227.5882     -2135.6532      81.084574     -2054.5687    
   1620000   1135.6014     -2132.3354      75.00867      -2057.3268    
   1630000   1214.4477     -2135.0811      80.21662      -2054.8644    
   1640000   1206.3194     -2138.8565      79.679729     -2059.1767    
   1650000   1228.8611     -2137.5959      81.168652     -2056.4273    
   1660000   1191.4192     -2136.9141      78.695543     -2058.2186    
   1670000   1220.2041     -2141.0335      80.596838     -2060.4367    
   1680000   1174.127      -2130.5651      77.553359     -2053.0117    
   1690000   1273.832      -2135.2194      84.139069     -2051.0803    
   1700000   1211.2018     -2136.9245      80.002224     -2056.9223    
   1710000   1143.3618     -2135.6032      75.521259     -2060.0819    
   1720000   1164.1365     -2134.9829      76.893464     -2058.0895    
   1730000   1155.0475     -2133.313       76.293125     -2057.0199    
   1740000   1238.911      -2133.0654      81.832465     -2051.233     
   1750000   1175.9047     -2140.207       77.670781     -2062.5362    
   1760000   1194.8332     -2137.09        78.921045     -2058.1689    
   1770000   1184.9936     -2140.496       78.271119     -2062.2249    
   1780000   1168.0026     -2135.0543      77.14883      -2057.9054    
   1790000   1218.8909     -2136.158       80.5101       -2055.6479    
   1800000   1159.8722     -2134.368       76.611803     -2057.7562    
   1810000   1277.8145     -2136.9977      84.402117     -2052.5956    
   1820000   1201.8217     -2136.6783      79.382645     -2057.2957    
   1830000   1234.8158     -2135.6293      81.561972     -2054.0673    
   1840000   1262.1122     -2134.5026      83.364954     -2051.1376    
   1850000   1200.5263     -2137.5686      79.297081     -2058.2715    
   1860000   1225.9658     -2137.1753      80.97741      -2056.1978    
   1870000   1241.051      -2140.7061      81.973822     -2058.7323    
   1880000   1251.9144     -2135.9263      82.691367     -2053.2349    
   1890000   1183.5623     -2135.4505      78.176581     -2057.2739    
   1900000   1119.5671     -2136.0339      73.949571     -2062.0843    
   1910000   1274.4895     -2138.7469      84.182495     -2054.5644    
   1920000   1197.9534     -2139.5546      79.127138     -2060.4274    
   1930000   1194.5933     -2135.3032      78.905196     -2056.398     
   1940000   1181.4508     -2135.906       78.037111     -2057.8689    
   1950000   1228.3866     -2134.87        81.137308     -2053.7326    
   1960000   1205.141      -2133.6979      79.601895     -2054.096     
   1970000   1151.3454     -2138.4154      76.048593     -2062.3668    
   1980000   1228.2227     -2141.2618      81.126485     -2060.1353    
   1990000   1184.2212     -2136.6044      78.220103     -2058.3843    
   2000000   1199.6102     -2135.8581      79.236574     -2056.6216    
   2010000   1174.237      -2129.9527      77.560622     -2052.3921    
   2020000   1178.8182     -2133.1795      77.863224     -2055.3163    
   2030000   1229.0505     -2136.5002      81.181166     -2055.319     
   2040000   1178.2285     -2133.4218      77.824272     -2055.5975    
   2050000   1224.7372     -2134.2764      80.896261     -2053.3801    
   2060000   1159.2972     -2137.7384      76.573819     -2061.1645    
   2070000   1187.614      -2136.2143      78.444202     -2057.7701    
   2080000   1183.2291     -2137.2705      78.154568     -2059.1159    
   2090000   1202.1389     -2136.5667      79.403599     -2057.1631    
   2100000   1300.1753     -2135.6692      85.879094     -2049.7901    
   2110000   1235.099      -2133.8619      81.58068      -2052.2812    
   2120000   1190.8929     -2137.9373      78.660777     -2059.2765    
   2130000   1212.2119     -2133.0654      80.06894      -2052.9965    
   2140000   1163.6555     -2138.6121      76.861698     -2061.7504    
   2150000   1348.3421     -2138.9937      89.060606     -2049.9331    
   2160000   1280.8888     -2138.6524      84.605181     -2054.0472    
   2170000   1246.5771     -2128.5874      82.338831     -2046.2486    
   2180000   1141.0792     -2141.1612      75.370488     -2065.7907    
   2190000   1194.6143     -2132.5667      78.906587     -2053.6601    
   2200000   1179.0552     -2137.7608      77.878873     -2059.8819    
   2210000   1223.3786     -2137.7398      80.806525     -2056.9333    
   2220000   1149.2784     -2136.5526      75.912064     -2060.6406    
   2230000   1205.5198     -2134.9324      79.626917     -2055.3054    
   2240000   1224.9569     -2134.9602      80.91077      -2054.0495    
   2250000   1197.1966     -2135.0312      79.077152     -2055.954     
   2260000   1225.0953     -2128.9342      80.919914     -2048.0143    
   2270000   1105.1271     -2137.1783      72.995782     -2064.1825    
   2280000   1199.27       -2134.0613      79.214102     -2054.8472    
   2290000   1286.8664     -2129.5856      85.000014     -2044.5856    
   2300000   1201.419      -2138.9779      79.356052     -2059.6219    
   2310000   1206.7643     -2137.1836      79.709116     -2057.4744    
   2320000   1176.3508     -2136.8775      77.700244     -2059.1772    
   2330000   1150.6501     -2141.3444      76.002666     -2065.3417    
   2340000   1215.655      -2136.1948      80.296365     -2055.8984    
   2350000   1183.6448     -2132.1872      78.182027     -2054.0052    
   2360000   1103.8188     -2135.819       72.909368     -2062.9096    
   2370000   1188.9029     -2134.2147      78.529336     -2055.6854    
   2380000   1251.0994     -2137.2679      82.637532     -2054.6304    
   2390000   1176.6539     -2136.0401      77.720266     -2058.3198    
   2400000   1223.9646     -2135.4054      80.845228     -2054.5601    
   2410000   1233.0581     -2137.1504      81.445875     -2055.7045    
   2420000   1222.2093     -2131.7974      80.729291     -2051.0681    
   2430000   1120.9904     -2134.7499      74.043582     -2060.7063    
   2440000   1173.137      -2139.5307      77.487967     -2062.0428    
   2450000   1217.5022     -2137.2691      80.418375     -2056.8507    
   2460000   1152.6824     -2136.5793      76.1369       -2060.4424    
   2470000   1254.062      -2139.0887      82.833222     -2056.2554    
   2480000   1171.5638     -2135.6514      77.384055     -2058.2673    
   2490000   1219.0282     -2134.2963      80.519167     -2053.7771    
   2500000   1243.0082     -2131.4548      82.103097     -2049.3518    
   2510000   1251.3218     -2134.5729      82.652224     -2051.9207    
   2520000   1263.1202     -2132.484       83.431533     -2049.0525    
   2530000   1212.6565     -2132.1564      80.098306     -2052.0581    
   2540000   1212.0414     -2137.2947      80.057679     -2057.237     
   2550000   1234.7487     -2139.673       81.557539     -2058.1155    
   2560000   1131.157      -2133.1295      74.715107     -2058.4144    
   2570000   1204.9125     -2130.3417      79.586798     -2050.7549    
   2580000   1241.5863     -2135.273       82.009174     -2053.2639    
   2590000   1174.14       -2135.6961      77.554216     -2058.1419    
   2600000   1183.0047     -2137.9693      78.139747     -2059.8296    
   2610000   1227.3405     -2135.5354      81.068215     -2054.4671    
   2620000   1249.1331     -2142.0783      82.507659     -2059.5707    
   2630000   1148.1788     -2141.1895      75.839433     -2065.35      
   2640000   1285.6933     -2137.4119      84.922529     -2052.4894    
   2650000   1165.5937     -2139.0637      76.989717     -2062.074     
   2660000   1206.5852     -2137.7043      79.697285     -2058.007     
   2670000   1221.2622     -2137.3795      80.666731     -2056.7128    
   2680000   1236.602      -2132.8457      81.679955     -2051.1657    
   2690000   1180.0575     -2138.938       77.94508      -2060.9929    
   2700000   1153.0592     -2138.1691      76.161789     -2062.0073    
   2710000   1157.6922     -2136.3606      76.467806     -2059.8928    
   2720000   1133.7695     -2142.3536      74.887669     -2067.466     
   2730000   1230.1301     -2137.2972      81.252469     -2056.0448    
   2740000   1152.1475     -2140.7293      76.101569     -2064.6278    
   2750000   1172.1377     -2139.003       77.421964     -2061.581     
   2760000   1216.7036     -2133.7124      80.365627     -2053.3468    
   2770000   1180.5591     -2130.7802      77.978212     -2052.802     
   2780000   1068.1994     -2141.0891      70.556634     -2070.5325    
   2790000   1105.1773     -2135.6942      72.999099     -2062.6951    
   2800000   1196.0513     -2134.5802      79.001501     -2055.5787    
   2810000   1142.5425     -2135.3122      75.467141     -2059.845     
   2820000   1231.8292     -2139.9108      81.3647       -2058.5461    
   2830000   1201.5979     -2139.5521      79.367862     -2060.1843    
   2840000   1181.7008     -2140.8915      78.053626     -2062.8379    
   2850000   1212.564      -2138.4567      80.092197     -2058.3645    
   2860000   1232.6184     -2133.2955      81.416832     -2051.8786    
   2870000   1233.2717     -2137.3705      81.459979     -2055.9105    
   2880000   1140.1555     -2135.0076      75.309473     -2059.6981    
   2890000   1220.2764     -2133.2042      80.601617     -2052.6026    
   2900000   1197.2643     -2138.2188      79.081622     -2059.1372    
   2910000   1172.6236     -2137.0632      77.454057     -2059.6091    
   2920000   1231.6384     -2133.6552      81.352096     -2052.3031    
   2930000   1262.7226     -2136.2722      83.405269     -2052.867     
   2940000   1186.4063     -2134.4259      78.364432     -2056.0615    
   2950000   1188.1198     -2137.2937      78.477613     -2058.8161    
   2960000   1182.1547     -2135.1076      78.083606     -2057.024     
   2970000   1171.0079     -2132.202       77.347335     -2054.8546    
   2980000   1250.2447     -2133.7466      82.581079     -2051.1656    
   2990000   1229.154      -2138.4715      81.188001     -2057.2835    
   3000000   1240.7409     -2136.6319      81.953336     -2054.6785    
   3010000   1213.6937     -2136.4909      80.166818     -2056.3241    
   3020000   1183.0122     -2135.2135      78.140245     -2057.0732    
   3030000   1184.1405     -2135.2901      78.214768     -2057.0753    
   3040000   1252.7747     -2140.7451      82.74819      -2057.9969    
   3050000   1202.6416     -2135.2257      79.436801     -2055.7889    
   3060000   1277.88       -2141.003       84.406448     -2056.5965    
   3070000   1145.8729     -2131.6408      75.687123     -2055.9537    
   3080000   1157.4818     -2139.7989      76.453912     -2063.345     
   3090000   1258.8465     -2137.082       83.149247     -2053.9327    
   3100000   1206.4609     -2138.8923      79.689073     -2059.2033    
   3110000   1170.9745     -2135.7165      77.345129     -2058.3713    
   3120000   1298.5845     -2136.303       85.774015     -2050.529     
   3130000   1199.8197     -2139.5519      79.250412     -2060.3015    
   3140000   1167.0838     -2134.5887      77.088144     -2057.5006    
   3150000   1198.0604     -2130.2534      79.134205     -2051.1192    
   3160000   1163.1712     -2135.9939      76.829705     -2059.1642    
   3170000   1262.7505     -2136.8321      83.407111     -2053.4249    
   3180000   1148.1566     -2137.9651      75.837963     -2062.1271    
   3190000   1221.082      -2136.8469      80.65483      -2056.1921    
   3200000   1172.9049     -2135.2754      77.472639     -2057.8028    
   3210000   1163.7703     -2130.2115      76.869279     -2053.3422    
   3220000   1183.4717     -2132.867       78.170593     -2054.6964    
   3230000   1159.9745     -2131.7809      76.61856      -2055.1623    
   3240000   1164.4454     -2131.0743      76.913873     -2054.1604    
   3250000   1247.087      -2139.3282      82.372511     -2056.9557    
   3260000   1231.9469     -2142.901       81.372474     -2061.5285    
   3270000   1196.8657     -2129.8951      79.055297     -2050.8398    
   3280000   1208.5802     -2132.0812      79.829057     -2052.2522    
   3290000   1165.9319     -2132.5984      77.01206      -2055.5864    
   3300000   1188.2224     -2136.6646      78.484385     -2058.1802    
   3310000   1198.1274     -2134.5036      79.138631     -2055.3649    
   3320000   1196.0594     -2133.0772      79.002037     -2054.0751    
   3330000   1128.3672     -2139.796       74.530839     -2065.2651    
   3340000   1142.5096     -2133.5656      75.464966     -2058.1006    
   3350000   1228.2819     -2136.366       81.130392     -2055.2356    
   3360000   1156.2249     -2139.722       76.370894     -2063.3511    
   3370000   1154.4907     -2137.4185      76.256347     -2061.1622    
   3380000   1242.6024     -2136.767       82.076294     -2054.6907    
   3390000   1286.6065     -2138.777       84.982848     -2053.7941    
   3400000   1193.8074     -2136.7716      78.85329      -2057.9183    
   3410000   1147.802      -2142.514       75.814545     -2066.6995    
   3420000   1143.3855     -2133.6431      75.522821     -2058.1203    
   3430000   1185.9661     -2133.9267      78.335356     -2055.5914    
   3440000   1236.4162     -2135.391       81.667678     -2053.7233    
   3450000   1212.7605     -2135.4417      80.105179     -2055.3365    
   3460000   1268.5613     -2136.4645      83.790929     -2052.6735    
   3470000   1196.0148     -2142.0852      78.99909      -2063.0861    
   3480000   1139.2028     -2134.2604      75.246549     -2059.0138    
   3490000   1196.1035     -2133.9298      79.004947     -2054.9248    
   3500000   1141.1038     -2140.9012      75.372116     -2065.5291    
   3510000   1218.6078     -2132.1408      80.491401     -2051.6494    
   3520000   1182.1835     -2135.9365      78.085503     -2057.851     
   3530000   1152.8031     -2134.6084      76.144877     -2058.4635    
   3540000   1217.6612     -2135.8076      80.428876     -2055.3787    
   3550000   1152.2122     -2133.769       76.105842     -2057.6631    
   3560000   1214.7501     -2140.252       80.23659      -2060.0154    
   3570000   1164.845      -2137.2555      76.940265     -2060.3152    
   3580000   1196.1437     -2129.3893      79.007608     -2050.3817    
   3590000   1124.8038     -2139.2439      74.295468     -2064.9485    
   3600000   1215.9107     -2141.3841      80.313252     -2061.0708    
   3610000   1262.2947     -2142.9543      83.377008     -2059.5773    
   3620000   1236.3417     -2133.2096      81.662763     -2051.5468    
   3630000   1206.5941     -2136.8853      79.697874     -2057.1874    
   3640000   1163.8216     -2137.9448      76.872665     -2061.0721    
   3650000   1140.5005     -2137.0255      75.332267     -2061.6933    
   3660000   1284.2927     -2142.3333      84.830016     -2057.5033    
   3670000   1166.3831     -2134.3132      77.041862     -2057.2714    
   3680000   1145.6602     -2139.1122      75.673075     -2063.4392    
   3690000   1120.2086     -2135.8976      73.991947     -2061.9056    
   3700000   1196.1022     -2141.6677      79.004862     -2062.6629    
   3710000   1246.6749     -2135.4693      82.34529      -2053.124     
   3720000   1146.0997     -2134.1682      75.702101     -2058.4661    
   3730000   1151.553      -2132.7656      76.062306     -2056.7033    
   3740000   1217.2599     -2134.5735      80.402373     -2054.1712    
   3750000   1153.248      -2133.7391      76.174261     -2057.5649    
   3760000   1182.8817     -2142.5766      78.131627     -2064.445     
   3770000   1306.7172     -2134.8957      86.311197     -2048.5845    
   3780000   1103.0971     -2139.6152      72.8617       -2066.7535    
   3790000   1298.89       -2135.8535      85.794196     -2050.0593    
   3800000   1185.6241     -2137.6158      78.312766     -2059.303     
   3810000   1219.6394     -2133.6953      80.559544     -2053.1357    
   3820000   1206.3251     -2139.2477      79.680105     -2059.5676    
   3830000   1166.7322     -2131.3613      77.064919     -2054.2964    
   3840000   1227.0908     -2135.9115      81.051724     -2054.8597    
   3850000   1189.2298     -2133.8683      78.550932     -2055.3173    
   3860000   1246.1239     -2132.7498      82.308893     -2050.4409    
   3870000   1189.2977     -2134.5199      78.555412     -2055.9644    
   3880000   1236.2651     -2137.61        81.657704     -2055.9523    
   3890000   1167.5186     -2134.6457      77.116859     -2057.5289    
   3900000   1225.5826     -2134.1353      80.952098     -2053.1832    
   3910000   1206.9674     -2132.002       79.722531     -2052.2794    
   3920000   1284.7811     -2136.7141      84.862277     -2051.8518    
   3930000   1194.8527     -2137.2768      78.922334     -2058.3545    
   3940000   1105.2567     -2139.1224      73.004344     -2066.1181    
   3950000   1206.8349     -2130.3324      79.71378      -2050.6186    
   3960000   1210.3069     -2135.9029      79.94311      -2055.9598    
   3970000   1205.617      -2135.4245      79.633333     -2055.7912    
   3980000   1168.1928     -2136.1948      77.161394     -2059.0334    
   3990000   1220.7313     -2137.9145      80.631662     -2057.2828    
   4000000   1208.1643     -2135.5071      79.801592     -2055.7055    
   4010000   1170.1241     -2140.7496      77.288957     -2063.4606    
   4020000   1202.4784     -2136.7121      79.426022     -2057.286     
   4030000   1158.4258     -2138.7355      76.516262     -2062.2193    
   4040000   1148.7719     -2132.1965      75.878607     -2056.3179    
   4050000   1207.165      -2138.9551      79.735584     -2059.2195    
   4060000   1183.5298     -2139.881       78.174434     -2061.7066    
   4070000   1173.0149     -2134.9577      77.479905     -2057.4778    
   4080000   1153.8728     -2134.2462      76.215529     -2058.0306    
   4090000   1145.2952     -2137.4273      75.648966     -2061.7783    
   4100000   1154.9029     -2132.2724      76.283569     -2055.9888    
   4110000   1246.2735     -2135.3711      82.318772     -2053.0523    
   4120000   1274.5558     -2131.1751      84.186878     -2046.9882    
   4130000   1186.1311     -2135.4029      78.346256     -2057.0567    
   4140000   1196.755      -2137.904       79.047985     -2058.856     
   4150000   1234.4168     -2139.8312      81.535616     -2058.2955    
   4160000   1187.0852     -2136.6012      78.409271     -2058.1919    
   4170000   1167.0055     -2140.095       77.082968     -2063.012     
   4180000   1208.5303     -2139.0768      79.825767     -2059.251     
   4190000   1147.3338     -2140.931       75.783614     -2065.1474    
   4200000   1166.2457     -2136.1115      77.032783     -2059.0787    
   4210000   1196.4198     -2143.9704      79.025844     -2064.9445    
   4220000   1236.4979     -2135.0751      81.673081     -2053.402     
   4230000   1233.3362     -2135.1782      81.464242     -2053.714     
   4240000   1151.798      -2138.4363      76.078488     -2062.3578    
   4250000   1205.1826     -2137.035       79.604644     -2057.4304    
   4260000   1174.8591     -2139.6366      77.601717     -2062.0348    
   4270000   1177.0516     -2138.2445      77.746532     -2060.498     
   4280000   1243.1302     -2139.6042      82.111156     -2057.493     
   4290000   1194.039      -2136.0468      78.868588     -2057.1782    
   4300000   1140.2202     -2133.4045      75.313752     -2058.0907    
   4310000   1239.1609     -2136.5587      81.848975     -2054.7097    
   4320000   1162.5798     -2131.8641      76.790643     -2055.0734    
   4330000   1164.5733     -2132.8074      76.922321     -2055.8851    
   4340000   1140.7522     -2136.843       75.348892     -2061.4941    
   4350000   1149.0134     -2139.0811      75.894555     -2063.1866    
   4360000   1137.0682     -2139.6559      75.105556     -2064.5503    
   4370000   1291.1857     -2135.6906      85.285315     -2050.4053    
   4380000   1136.7268     -2130.6828      75.083003     -2055.5998    
   4390000   1257.6839     -2138.6493      83.072457     -2055.5769    
   4400000   1208.703      -2134.3962      79.837169     -2054.559     
   4410000   1175.1201     -2139.459       77.618954     -2061.84      
   4420000   1178.7156     -2133.3691      77.856444     -2055.5126    
   4430000   1274.9129     -2138.2935      84.210461     -2054.083     
   4440000   1154.5696     -2141.0585      76.261555     -2064.7969    
   4450000   1272.8586     -2135.2396      84.074775     -2051.1648    
   4460000   1197.3048     -2134.7404      79.0843       -2055.6561    
   4470000   1109.8546     -2129.7428      73.308044     -2056.4347    
   4480000   1242.2619     -2129.9544      82.053802     -2047.9006    
   4490000   1226.6915     -2142.5214      81.025346     -2061.4961    
   4500000   1204.6614     -2135.2115      79.570214     -2055.6413    
   4510000   1234.4152     -2138.4871      81.53551      -2056.9516    
   4520000   1276.5193     -2140.5226      84.316568     -2056.2061    
   4530000   1260.3067     -2138.7942      83.245698     -2055.5485    
   4540000   1190.9534     -2137.6364      78.664777     -2058.9716    
   4550000   1227.8644     -2137.2288      81.102821     -2056.126     
   4560000   1252.2175     -2139.1824      82.711391     -2056.471     
   4570000   1139.3369     -2137.9897      75.255403     -2062.7343    
   4580000   1162.5027     -2134.9771      76.785551     -2058.1916    
   4590000   1196.521      -2137.6774      79.032529     -2058.6449    
   4600000   1249.0769     -2134.2475      82.503948     -2051.7436    
   4610000   1266.4526     -2136.8712      83.651641     -2053.2196    
   4620000   1150.8948     -2138.0092      76.018825     -2061.9904    
   4630000   1192.2281     -2137.2783      78.748971     -2058.5294    
   4640000   1215.9882     -2136.3025      80.318369     -2055.9842    
   4650000   1178.2146     -2138.6861      77.823353     -2060.8627    
   4660000   1154.0898     -2138.2796      76.229866     -2062.0497    
   4670000   1227.1457     -2140.3524      81.055345     -2059.2971    
   4680000   1165.1458     -2133.4544      76.960134     -2056.4942    
   4690000   1176.5476     -2141.6349      77.713247     -2063.9217    
   4700000   1155.3486     -2141.3114      76.313012     -2064.9984    
   4710000   1208.6834     -2138.6683      79.835877     -2058.8325    
   4720000   1225.501      -2141.9879      80.946711     -2061.0412    
   4730000   1186.7892     -2134.4807      78.389722     -2056.0909    
   4740000   1208.8153     -2135.0646      79.844588     -2055.22      
   4750000   1188.8058     -2140.2373      78.522924     -2061.7143    
   4760000   1255.3254     -2134.2795      82.916671     -2051.3628    
   4770000   1205.7254     -2135.6486      79.640494     -2056.0081    
   4780000   1166.0855     -2141.9682      77.022202     -2064.946     
   4790000   1153.8165     -2134.6787      76.211813     -2058.4669    
   4800000   1103.6574     -2139.2606      72.898707     -2066.3619    
   4810000   1132.2796     -2134.0398      74.789257     -2059.2506    
   4820000   1281.1083     -2127.9447      84.61968      -2043.325     
   4830000   1175.8042     -2139.7894      77.664142     -2062.1253    
   4840000   1202.9718     -2139.771       79.458614     -2060.3124    
   4850000   1220.218      -2140.7918      80.59776      -2060.1941    
   4860000   1153.4039     -2137.4048      76.184557     -2061.2203    
   4870000   1186.0674     -2139.5615      78.342044     -2061.2195    
   4880000   1212.4337     -2138.2562      80.083591     -2058.1726    
   4890000   1253.2282     -2137.5988      82.778144     -2054.8206    
   4900000   1232.6866     -2138.2343      81.421331     -2056.813     
   4910000   1163.4568     -2135.1309      76.848574     -2058.2823    
   4920000   1185.6199     -2139.571       78.312488     -2061.2586    
   4930000   1144.8793     -2139.5766      75.621492     -2063.9551    
   4940000   1178.6803     -2135.4095      77.854114     -2057.5554    
   4950000   1247.5963     -2131.4486      82.406151     -2049.0424    
   4960000   1199.7015     -2139.8632      79.242606     -2060.6206    
   4970000   1311.4472     -2138.6145      86.623622     -2051.9909    
   4980000   1229.6325     -2138.8154      81.219603     -2057.5958    
   4990000   1175.8229     -2136.1698      77.665376     -2058.5044    
   5000000   1277.4708     -2137.2231      84.379414     -2052.8436    
   5010000   1183.9999     -2135.3496      78.205482     -2057.1442    
   5020000   1182.1543     -2144.448       78.083575     -2066.3644    
   5030000   1206.41       -2136.7769      79.685716     -2057.0912    
   5040000   1156.6356     -2138.8285      76.398018     -2062.4305    
   5050000   1162.4127     -2132.8542      76.779609     -2056.0746    
   5060000   1245.1835     -2137.5196      82.246776     -2055.2729    
   5070000   1219.4789     -2138.1295      80.548943     -2057.5806    
   5080000   1176.7603     -2139.1866      77.727295     -2061.4593    
   5090000   1140.8969     -2136.7292      75.358444     -2061.3707    
   5100000   1175.3104     -2136.0621      77.631524     -2058.4305    
   5110000   1228.9647     -2133.7273      81.175493     -2052.5518    
   5120000   1189.4451     -2136.8503      78.56515      -2058.2851    
   5130000   1193.0216     -2137.3168      78.801383     -2058.5154    
   5140000   1227.0746     -2139.1736      81.050651     -2058.123     
   5150000   1227.8421     -2139.7834      81.101348     -2058.682     
   5160000   1157.389      -2139.2333      76.447783     -2062.7855    
   5170000   1194.8827     -2135.6532      78.924314     -2056.7288    
   5180000   1145.6882     -2138.3103      75.674924     -2062.6354    
   5190000   1171.8051     -2136.1951      77.399996     -2058.7951    
   5200000   1253.0733     -2134.7362      82.767916     -2051.9683    
   5210000   1167.1373     -2139.0341      77.091678     -2061.9424    
   5220000   1199.7323     -2134.5564      79.244638     -2055.3117    
   5230000   1203.6288     -2136.6947      79.502007     -2057.1927    
   5240000   1200.1061     -2138.6425      79.269326     -2059.3731    
   5250000   1159.8196     -2131.9832      76.608326     -2055.3749    
   5260000   1201.4304     -2136.5354      79.356799     -2057.1786    
   5270000   1248.1554     -2135.0766      82.443078     -2052.6336    
   5280000   1106.3088     -2138.3253      73.073839     -2065.2515    
   5290000   1218.0123     -2134.7819      80.452068     -2054.3299    
   5300000   1263.7725     -2135.3475      83.474618     -2051.8728    
   5310000   1235.5162     -2131.8912      81.608232     -2050.283     
   5320000   1112.9341     -2138.0188      73.511448     -2064.5074    
   5330000   1202.471      -2136.7425      79.425535     -2057.317     
   5340000   1183.1417     -2139.6555      78.148799     -2061.5067    
   5350000   1273.5405     -2139.037       84.119812     -2054.9172    
   5360000   1256.2952     -2137.7061      82.98073      -2054.7254    
   5370000   1221.5184     -2139.0749      80.683652     -2058.3912    
   5380000   1199.6903     -2135.6227      79.241864     -2056.3809    
   5390000   1256.4951     -2134.4958      82.99393      -2051.5019    
   5400000   1162.8776     -2138.2597      76.810312     -2061.4493    
   5410000   1198.9885     -2139.5051      79.195512     -2060.3096    
   5420000   1103.0253     -2133.123       72.856956     -2060.2661    
   5430000   1215.1736     -2130.0609      80.264566     -2049.7963    
   5440000   1240.5059     -2133.55        81.937816     -2051.6122    
   5450000   1212.6969     -2144.8507      80.100974     -2064.7497    
   5460000   1047.6703     -2136.8554      69.200651     -2067.6548    
   5470000   1184.8299     -2134.8494      78.260304     -2056.5891    
   5480000   1225.5263     -2131.6313      80.948385     -2050.6829    
   5490000   1184.0963     -2134.8183      78.211854     -2056.6064    
   5500000   1226.138      -2129.8186      80.988789     -2048.8298    
   5510000   1115.2433     -2138.9285      73.663975     -2065.2645    
   5520000   1261.1924     -2136.2028      83.304199     -2052.8986    
   5530000   1221.9503     -2131.645       80.712184     -2050.9328    
   5540000   1223.526      -2134.2274      80.816259     -2053.4112    
   5550000   1192.8465     -2138.2443      78.789819     -2059.4545    
   5560000   1219.5764     -2140.7494      80.555382     -2060.1941    
   5570000   1234.6669     -2134.1291      81.55214      -2052.5769    
   5580000   1151.4519     -2140.6248      76.055623     -2064.5692    
   5590000   1209.6331     -2138.7002      79.898604     -2058.8016    
   5600000   1102.7827     -2138.8796      72.840932     -2066.0387    
   5610000   1197.4136     -2138.6578      79.091487     -2059.5663    
   5620000   1169.7803     -2138.2597      77.266248     -2060.9935    
   5630000   1176.7509     -2142.3113      77.72667      -2064.5846    
   5640000   1197.7318     -2136.5091      79.112504     -2057.3966    
   5650000   1126.8346     -2132.6494      74.429604     -2058.2198    
   5660000   1251.6821     -2130.0466      82.676021     -2047.3706    
   5670000   1205.6205     -2139.8424      79.633566     -2060.2088    
   5680000   1144.4081     -2139.1331      75.59037      -2063.5427    
   5690000   1214.9752     -2133.005       80.251459     -2052.7535    
   5700000   1231.3449     -2136.9187      81.33271      -2055.586     
   5710000   1160.9928     -2135.3113      76.685822     -2058.6255    
   5720000   1161.8241     -2139.2691      76.740727     -2062.5283    
   5730000   1202.8049     -2136.9715      79.447591     -2057.524     
   5740000   1204.5098     -2133.9947      79.5602       -2054.4345    
   5750000   1168.1315     -2133.082       77.157343     -2055.9247    
   5760000   1249.5865     -2134.8652      82.537608     -2052.3276    
   5770000   1113.3283     -2141.2143      73.537485     -2067.6769    
   5780000   1157.4554     -2138.3384      76.45217      -2061.8862    
   5790000   1177.8566     -2137.1549      77.799709     -2059.3552    
   5800000   1255.6065     -2137.7774      82.935238     -2054.8421    
   5810000   1126.3544     -2136.4219      74.397889     -2062.024     
   5820000   1184.7514     -2134.7898      78.255125     -2056.5346    
   5830000   1265.0579     -2136.0661      83.559519     -2052.5066    
   5840000   1213.4726     -2133.8474      80.152209     -2053.6952    
   5850000   1201.0185     -2138.4403      79.329596     -2059.1107    
   5860000   1312.8405     -2133.6252      86.715654     -2046.9096    
   5870000   1165.0224     -2132.1706      76.951981     -2055.2186    
   5880000   1207.0229     -2131.5232      79.726198     -2051.797     
   5890000   1151.7312     -2135.4312      76.07407      -2059.3571    
   5900000   1303.0567     -2138.6067      86.069417     -2052.5373    
   5910000   1198.7752     -2131.5532      79.181423     -2052.3717    
   5920000   1223.9888     -2138.0794      80.846825     -2057.2326    
   5930000   1254.2834     -2134.3061      82.847842     -2051.4583    
   5940000   1203.4253     -2135.6395      79.48857      -2056.151     
   5950000   1200.1831     -2133.3519      79.274417     -2054.0775    
   5960000   1161.3161     -2137.7559      76.707178     -2061.0487    
   5970000   1194.1051     -2141.1309      78.872949     -2062.258     
   5980000   1190.5524     -2137.4964      78.638289     -2058.8581    
   5990000   1222.2173     -2136.9001      80.729815     -2056.1703    
   6000000   1206.3252     -2140.7301      79.68011      -2061.05      
   6010000   1199.0428     -2134.9918      79.199094     -2055.7927    
   6020000   1113.7071     -2133.7004      73.56251      -2060.1379    
   6030000   1183.7606     -2134.8742      78.189675     -2056.6846    
   6040000   1195.0851     -2132.9821      78.937685     -2054.0445    
   6050000   1208.3463     -2141.5876      79.813613     -2061.774     
   6060000   1205.2108     -2135.9162      79.606503     -2056.3097    
   6070000   1265.8656     -2136.2503      83.612874     -2052.6375    
   6080000   1243.1899     -2138.1715      82.1151       -2056.0564    
   6090000   1163.9989     -2139.4895      76.884377     -2062.6051    
   6100000   1124.6481     -2135.3132      74.28518      -2061.028     
   6110000   1229.4653     -2136.4703      81.208561     -2055.2617    
   6120000   1165.7649     -2135.1787      77.001023     -2058.1777    
   6130000   1170.6132     -2137.1679      77.321263     -2059.8466    
   6140000   1165.8764     -2139.5866      77.008394     -2062.5782    
   6150000   1218.9563     -2134.7211      80.514423     -2054.2067    
   6160000   1170.2825     -2138.4443      77.29942      -2061.1449    
   6170000   1227.4426     -2130.3162      81.074959     -2049.2412    
   6180000   1248.2431     -2133.0205      82.448872     -2050.5717    
   6190000   1191.3407     -2133.7987      78.690359     -2055.1083    
   6200000   1238.2252     -2138.1366      81.787167     -2056.3494    
   6210000   1225.0816     -2136.8824      80.919009     -2055.9633    
   6220000   1226.8562     -2142.0938      81.036225     -2061.0575    
   6230000   1199.0916     -2139.1268      79.202321     -2059.9245    
   6240000   1279.5635     -2133.7914      84.517642     -2049.2737    
   6250000   1183.2592     -2141.2985      78.15656      -2063.1419    
   6260000   1291.0776     -2141.8076      85.278174     -2056.5294    
   6270000   1231.7984     -2136.5158      81.362669     -2055.1531    
   6280000   1216.7656     -2137.4022      80.369719     -2057.0325    
   6290000   1249.9642     -2133.8022      82.562552     -2051.2397    
   6300000   1185.7294     -2133.0738      78.319719     -2054.7541    
   6310000   1186.8236     -2138.1197      78.391996     -2059.7277    
   6320000   1211.886      -2135.3953      80.047417     -2055.3479    
   6330000   1175.7679     -2137.794       77.661743     -2060.1322    
   6340000   1204.7972     -2130.6021      79.579187     -2051.0229    
   6350000   1232.665      -2138.992       81.419909     -2057.5721    
   6360000   1185.6019     -2134.0385      78.311296     -2055.7272    
   6370000   1214.14       -2141.5529      80.196293     -2061.3567    
   6380000   1185.6401     -2134.701       78.31382      -2056.3872    
   6390000   1186.6433     -2134.38        78.380087     -2055.9999    
   6400000   1183.9781     -2134.3998      78.204041     -2056.1957    
   6410000   1188.2728     -2143.175       78.487717     -2064.6872    
   6420000   1178.6655     -2139.5786      77.853136     -2061.7255    
   6430000   1156.8737     -2139.5203      76.413748     -2063.1066    
   6440000   1238.0648     -2139.9862      81.776573     -2058.2096    
   6450000   1222.2603     -2136.682       80.732656     -2055.9493    
   6460000   1205.2125     -2134.2896      79.606618     -2054.683     
   6470000   1184.0375     -2133.5759      78.207967     -2055.3679    
   6480000   1283.5395     -2131.2847      84.780266     -2046.5044    
   6490000   1220.8744     -2137.7082      80.641117     -2057.0671    
   6500000   1201.1438     -2135.012       79.337873     -2055.6742    
   6510000   1168.5001     -2132.2131      77.181691     -2055.0314    
   6520000   1143.2193     -2134.7092      75.511848     -2059.1974    
   6530000   1234.2211     -2138.3446      81.522688     -2056.8219    
   6540000   1189.7835     -2134.3725      78.587499     -2055.785     
   6550000   1149.0371     -2134.5716      75.896126     -2058.6754    
   6560000   1187.7406     -2138.2686      78.452564     -2059.816     
   6570000   1172.1639     -2128.7735      77.423694     -2051.3498    
   6580000   1202.1698     -2138.6405      79.405639     -2059.2348    
   6590000   1194.5152     -2139.1621      78.900038     -2060.2621    
   6600000   1235.9379     -2139.4353      81.636088     -2057.7992    
   6610000   1292.1454     -2135.6305      85.348703     -2050.2818    
   6620000   1189.7045     -2137.8912      78.582281     -2059.3089    
   6630000   1116.2146     -2137.3629      73.728132     -2063.6348    
   6640000   1206.7514     -2137.2254      79.708267     -2057.5172    
   6650000   1181.2482     -2139.1659      78.023729     -2061.1422    
   6660000   1154.3494     -2126.8014      76.247013     -2050.5544    
   6670000   1197.1716     -2136.9021      79.075498     -2057.8266    
   6680000   1237.5164     -2135.7706      81.740353     -2054.0302    
   6690000   1161.507      -2137.3247      76.719782     -2060.6049    
   6700000   1139.0795     -2131.5444      75.238406     -2056.306     
   6710000   1180.239      -2137.857       77.957068     -2059.8999    
   6720000   1261.2386     -2136.9389      83.307248     -2053.6316    
   6730000   1204.5051     -2140.1089      79.559892     -2060.549     
   6740000   1229.9362     -2136.1548      81.239666     -2054.9151    
   6750000   1280.8224     -2141.1955      84.600796     -2056.5947    
   6760000   1207.8222     -2140.4734      79.778994     -2060.6944    
   6770000   1263.0882     -2138.5774      83.429417     -2055.1479    
   6780000   1151.645      -2134.8268      76.068377     -2058.7585    
   6790000   1235.4835     -2141.8166      81.606073     -2060.2105    
   6800000   1195.1308     -2128.6703      78.940698     -2049.7296    
   6810000   1160.88       -2135.7156      76.678367     -2059.0373    
   6820000   1233.6609     -2139.937       81.485691     -2058.4513    
   6830000   1211.8584     -2145.7029      80.04559      -2065.6574    
   6840000   1207.2235     -2131.7768      79.739447     -2052.0373    
   6850000   1127.6022     -2137.6676      74.480306     -2063.1873    
   6860000   1094.2365     -2131.6634      72.276437     -2059.3869    
   6870000   1163.2892     -2134.225       76.837499     -2057.3875    
   6880000   1203.9435     -2139.1217      79.522796     -2059.5989    
   6890000   1247.4209     -2133.9986      82.394562     -2051.6041    
   6900000   1219.7552     -2137.8446      80.567191     -2057.2774    
   6910000   1238.7033     -2138.241       81.81875      -2056.4223    
   6920000   1164.4716     -2139.2797      76.915601     -2062.3641    
   6930000   1163.5951     -2135.2751      76.857705     -2058.4174    
   6940000   1213.5539     -2136.0595      80.157585     -2055.9019    
   6950000   1195.9278     -2138.7629      78.993341     -2059.7695    
   6960000   1251.3734     -2134.4289      82.655633     -2051.7733    
   6970000   1091.3536     -2136.7529      72.086019     -2064.6669    
   6980000   1167.4246     -2135.1401      77.11065      -2058.0294    
   6990000   1243.619      -2143.8875      82.14344      -2061.744     
   7000000   1117.5508     -2138.7213      73.81639      -2064.9049    
   7010000   1241.5622     -2134.7688      82.007585     -2052.7612    
   7020000   1231.0992     -2137.0186      81.316482     -2055.7021    
   7030000   1123.1416     -2138.7325      74.185678     -2064.5468    
   7040000   1216.5238     -2130.3629      80.35375      -2050.0091    
   7050000   1168.2785     -2136.8287      77.167057     -2059.6617    
   7060000   1179.6264     -2134.8759      77.916605     -2056.9593    
   7070000   1214.1713     -2141.1002      80.198364     -2060.9018    
   7080000   1286.3675     -2136.0172      84.967061     -2051.0501    
   7090000   1158.6959     -2139.2425      76.534108     -2062.7084    
   7100000   1195.5547     -2133.8102      78.9687       -2054.8415    
   7110000   1177.1756     -2135.7185      77.754725     -2057.9637    
   7120000   1160.5367     -2141.6357      76.655692     -2064.98      
   7130000   1240.3554     -2133.5643      81.927871     -2051.6365    
   7140000   1244.1492     -2131.784       82.178461     -2049.6056    
   7150000   1247.5396     -2134.7147      82.402402     -2052.3123    
   7160000   1211.2463     -2137.1368      80.005164     -2057.1316    
   7170000   1197.52       -2138.8341      79.09851      -2059.7356    
   7180000   1222.0252     -2141.3796      80.717129     -2060.6625    
   7190000   1308.6243     -2135.5634      86.437168     -2049.1262    
   7200000   1187.832      -2135.2836      78.458601     -2056.825     
   7210000   1154.0763     -2138.2534      76.228969     -2062.0244    
   7220000   1240.035      -2137.8419      81.906708     -2055.9352    
   7230000   1230.8216     -2141.8935      81.298149     -2060.5954    
   7240000   1255.2131     -2135.0756      82.909254     -2052.1664    
   7250000   1171.2879     -2135.4359      77.365831     -2058.0701    
   7260000   1251.2758     -2134.6135      82.649187     -2051.9643    
   7270000   1224.697      -2141.7585      80.893606     -2060.8649    
   7280000   1159.2105     -2140.4258      76.568098     -2063.8577    
   7290000   1214.682      -2139.7396      80.232096     -2059.5075    
   7300000   1198.2602     -2140.1425      79.147407     -2060.9951    
   7310000   1204.9859     -2139.0041      79.59165      -2059.4124    
   7320000   1224.8668     -2141.4206      80.90482      -2060.5158    
   7330000   1199.4931     -2136.1797      79.228839     -2056.9509    
   7340000   1237.3014     -2139.0554      81.726152     -2057.3293    
   7350000   1165.1169     -2139.9758      76.958226     -2063.0176    
   7360000   1181.0998     -2136.3302      78.013925     -2058.3163    
   7370000   1191.1403     -2141.2256      78.677122     -2062.5485    
   7380000   1235.3761     -2136.0921      81.598984     -2054.4931    
   7390000   1284.5673     -2133.7258      84.848154     -2048.8777    
   7400000   1143.9006     -2134.6445      75.556845     -2059.0877    
   7410000   1201.3193     -2142.1         79.349465     -2062.7506    
   7420000   1185.233      -2135.9958      78.286931     -2057.7089    
   7430000   1272.0043     -2138.7905      84.018346     -2054.7721    
   7440000   1159.8104     -2132.7458      76.607717     -2056.1381    
   7450000   1233.9579     -2133.5573      81.505306     -2052.052     
   7460000   1184.1516     -2140.2768      78.215505     -2062.0613    
   7470000   1112.7827     -2135.9411      73.501453     -2062.4396    
   7480000   1218.6608     -2133.0562      80.494901     -2052.5613    
   7490000   1135.4605     -2136.7684      74.999359     -2061.7691    
   7500000   1304.6079     -2135.7704      86.171876     -2049.5986    
   7510000   1209.7281     -2134.433       79.904883     -2054.5282    
   7520000   1188.0596     -2140.9946      78.473636     -2062.521     
   7530000   1105.6272     -2135.898       73.028815     -2062.8692    
   7540000   1128.7012     -2137.2101      74.552894     -2062.6572    
   7550000   1210.3206     -2133.0862      79.944015     -2053.1422    
   7560000   1233.168      -2134.8574      81.45313      -2053.4043    
   7570000   1235.9951     -2136.8196      81.639868     -2055.1798    
   7580000   1145.8951     -2135.977       75.688587     -2060.2884    
   7590000   1224.1077     -2134.4489      80.854684     -2053.5942    
   7600000   1169.5965     -2133.8087      77.254108     -2056.5546    
   7610000   1215.3345     -2139.3933      80.275192     -2059.1181    
   7620000   1196.1415     -2140.6125      79.00746      -2061.605     
   7630000   1203.8184     -2138.7556      79.514535     -2059.2411    
   7640000   1146.7195     -2134.3028      75.743043     -2058.5597    
   7650000   1228.8272     -2135.5013      81.166413     -2054.3349    
   7660000   1191.0455     -2133.0938      78.670861     -2054.4229    
   7670000   1186.3502     -2136.9541      78.360728     -2058.5933    
   7680000   1218.8228     -2136.3097      80.505602     -2055.8041    
   7690000   1207.084      -2136.5501      79.730236     -2056.8198    
   7700000   1218.8809     -2135.5209      80.509443     -2055.0114    
   7710000   1228.0168     -2133.201       81.112883     -2052.0881    
   7720000   1168.777      -2134.8683      77.199978     -2057.6684    
   7730000   1229.1606     -2133.0499      81.188438     -2051.8615    
   7740000   1261.1757     -2132.9926      83.303094     -2049.6895    
   7750000   1286.0372     -2131.0337      84.945246     -2046.0884    
   7760000   1133.3933     -2136.8089      74.862822     -2061.9461    
   7770000   1198.079      -2136.8879      79.135437     -2057.7525    
   7780000   1173.7597     -2139.9667      77.5291       -2062.4376    
   7790000   1167.3843     -2139.7112      77.107991     -2062.6032    
   7800000   1249.2829     -2132.1348      82.517555     -2049.6172    
   7810000   1202.1629     -2144.7975      79.405188     -2065.3924    
   7820000   1289.5866     -2142.0884      85.17969      -2056.9087    
   7830000   1175.7916     -2137.6805      77.663308     -2060.0172    
   7840000   1236.4836     -2129.2571      81.672131     -2047.5849    
   7850000   1148.4591     -2131.0797      75.857944     -2055.2217    
   7860000   1254.8602     -2137.7354      82.885946     -2054.8495    
   7870000   1227.0508     -2141.5475      81.049075     -2060.4985    
   7880000   1202.4006     -2133.4252      79.420883     -2054.0043    
   7890000   1140.9433     -2133.025       75.361514     -2057.6634    
   7900000   1178.5748     -2133.3209      77.847142     -2055.4738    
   7910000   1266.3226     -2139.0099      83.643056     -2055.3668    
   7920000   1256.6295     -2134.5143      83.002806     -2051.5115    
   7930000   1151.6382     -2131.2882      76.067929     -2055.2203    
   7940000   1212.9034     -2130.3918      80.114616     -2050.2772    
   7950000   1235.1754     -2140.3277      81.585724     -2058.7419    
   7960000   1186.3155     -2138.0486      78.358431     -2059.6902    
   7970000   1180.7453     -2137.7287      77.990509     -2059.7382    
   7980000   1224.5036     -2133.4127      80.880829     -2052.5318    
   7990000   1242.8004     -2137.8829      82.089371     -2055.7935    
   8000000   1214.0644     -2136.8822      80.191304     -2056.6909    
   8010000   1271.7673     -2136.0424      84.002692     -2052.0397    
   8020000   1286.5235     -2139.0815      84.977368     -2054.1041    
   8030000   1197.8824     -2136.6541      79.122448     -2057.5317    
   8040000   1196.8881     -2132.9181      79.056777     -2053.8614    
   8050000   1167.5396     -2133.0671      77.118249     -2055.9489    
   8060000   1181.7538     -2133.5742      78.057126     -2055.517     
   8070000   1206.9118     -2139.9073      79.71886      -2060.1884    
   8080000   1147.9645     -2134.8703      75.825275     -2059.0451    
   8090000   1163.6427     -2136.2671      76.86085      -2059.4063    
   8100000   1143.315      -2136.3038      75.518165     -2060.7856    
   8110000   1202.1985     -2137.1126      79.407536     -2057.7051    
   8120000   1192.9609     -2134.5842      78.797375     -2055.7869    
   8130000   1177.8218     -2136.4786      77.797406     -2058.6812    
   8140000   1187.3962     -2132.4243      78.429816     -2053.9945    
   8150000   1144.8995     -2125.7976      75.622829     -2050.1747    
   8160000   1238.2936     -2135.643       81.791689     -2053.8513    
   8170000   1241.0838     -2141.0266      81.975986     -2059.0506    
   8180000   1197.5872     -2135.8713      79.102951     -2056.7683    
   8190000   1151.8996     -2137.2851      76.085199     -2061.1999    
   8200000   1169.7686     -2133.0227      77.265476     -2055.7572    
   8210000   1180.6198     -2134.9272      77.982224     -2056.945     
   8220000   1204.3437     -2133.9879      79.549234     -2054.4387    
   8230000   1173.0933     -2137.8118      77.485081     -2060.3267    
   8240000   1165.5996     -2135.8803      76.990106     -2058.8902    
   8250000   1207.3695     -2137.2053      79.749089     -2057.4562    
   8260000   1174.9572     -2135.9913      77.608199     -2058.3831    
   8270000   1213.2627     -2136.6164      80.138347     -2056.4781    
   8280000   1203.745      -2134.1408      79.509689     -2054.6312    
   8290000   1183.1686     -2131.483       78.150575     -2053.3324    
   8300000   1235.7758     -2138.9087      81.625379     -2057.2834    
   8310000   1232.7099     -2136.4864      81.422874     -2055.0635    
   8320000   1101.112      -2134.8821      72.730576     -2062.1516    
   8330000   1215.3502     -2135.8297      80.276234     -2055.5534    
   8340000   1188.8818     -2134.2871      78.52794      -2055.7591    
   8350000   1200.9926     -2138.1879      79.327884     -2058.86      
   8360000   1259.309      -2137.8302      83.179794     -2054.6505    
   8370000   1135.5418     -2136.0327      75.004732     -2061.028     
   8380000   1151.8325     -2134.7555      76.080767     -2058.6747    
   8390000   1206.2523     -2137.9888      79.675298     -2058.3135    
   8400000   1226.4279     -2134.466       81.007935     -2053.458     
   8410000   1152.1543     -2134.7443      76.102017     -2058.6422    
   8420000   1147.3925     -2133.7527      75.787494     -2057.9652    
   8430000   1168.911      -2137.5956      77.208831     -2060.3867    
   8440000   1223.4136     -2133.3653      80.808837     -2052.5565    
   8450000   1239.58       -2134.7916      81.876659     -2052.9149    
   8460000   1244.5762     -2134.5703      82.206665     -2052.3636    
   8470000   1174.9616     -2139.4396      77.608489     -2061.8311    
   8480000   1185.3322     -2137.0409      78.293483     -2058.7474    
   8490000   1269.9094     -2135.5127      83.879974     -2051.6327    
   8500000   1213.6379     -2139.2682      80.163131     -2059.105     
   8510000   1211.7124     -2134.1917      80.035949     -2054.1558    
   8520000   1159.9396     -2131.1795      76.616256     -2054.5632    
   8530000   1238.7952     -2135.6153      81.82482      -2053.7905    
   8540000   1212.923      -2138.0157      80.115911     -2057.8998    
   8550000   1172.5915     -2142.9584      77.451934     -2065.5064    
   8560000   1198.9839     -2136.7459      79.195207     -2057.5507    
   8570000   1268.5123     -2135.2395      83.787689     -2051.4518    
   8580000   1217.549      -2138.0874      80.421465     -2057.666     
   8590000   1173.4311     -2135.6171      77.507397     -2058.1097    
   8600000   1249.9709     -2137.1895      82.562997     -2054.6265    
   8610000   1153.8116     -2134.1492      76.211488     -2057.9377    
   8620000   1115.7929     -2131.0657      73.70028      -2057.3654    
   8630000   1211.1153     -2138.2106      79.996509     -2058.214     
   8640000   1216.0775     -2134.5147      80.324274     -2054.1905    
   8650000   1166.2335     -2136.3737      77.031982     -2059.3418    
   8660000   1178.7612     -2134.3976      77.859456     -2056.5381    
   8670000   1192.0595     -2133.9376      78.737839     -2055.1997    
   8680000   1222.6365     -2137.3977      80.757504     -2056.6402    
   8690000   1191.2784     -2136.0525      78.686242     -2057.3662    
   8700000   1257.1466     -2135.9346      83.036962     -2052.8976    
   8710000   1195.4976     -2135.0758      78.964932     -2056.1109    
   8720000   1296.5626     -2129.6518      85.640469     -2044.0113    
   8730000   1194.3541     -2136.5797      78.889401     -2057.6903    
   8740000   1148.4234     -2134.9454      75.855588     -2059.0898    
   8750000   1087.7493     -2134.1691      71.847943     -2062.3211    
   8760000   1215.2111     -2128.0987      80.267044     -2047.8316    
   8770000   1145.8074     -2136.5455      75.682795     -2060.8627    
   8780000   1236.7593     -2138.1025      81.690345     -2056.4121    
   8790000   1206.7646     -2138.4009      79.709135     -2058.6918    
   8800000   1110.2383     -2135.7383      73.333389     -2062.4049    
   8810000   1175.4633     -2139.1862      77.641627     -2061.5446    
   8820000   1129.761      -2137.3963      74.622901     -2062.7734    
   8830000   1181.8103     -2136.7438      78.060858     -2058.6829    
   8840000   1192.567      -2138.4624      78.771355     -2059.691     
   8850000   1198.8062     -2136.8067      79.183465     -2057.6233    
   8860000   1157.3342     -2134.2735      76.444161     -2057.8294    
   8870000   1162.2461     -2134.6448      76.768603     -2057.8762    
   8880000   1256.2088     -2140.4532      82.97502      -2057.4782    
   8890000   1250.5754     -2126.9353      82.602925     -2044.3324    
   8900000   1113.2604     -2142.0874      73.533005     -2068.5544    
   8910000   1199.5002     -2132.9949      79.22931      -2053.7656    
   8920000   1199.7284     -2134.9695      79.244383     -2055.7251    
   8930000   1204.8801     -2130.984       79.584664     -2051.3993    
   8940000   1236.8792     -2130.2406      81.698261     -2048.5423    
   8950000   1122.202      -2135.1676      74.12361      -2061.044     
   8960000   1145.8318     -2136.4172      75.684404     -2060.7328    
   8970000   1243.7427     -2139.0991      82.151609     -2056.9475    
   8980000   1084.9019     -2128.7305      71.659871     -2057.0706    
   8990000   1202.0654     -2135.1476      79.398742     -2055.7489    
   9000000   1206.9864     -2136.8522      79.723783     -2057.1284    
   9010000   1200.8974     -2136.3505      79.321598     -2057.0289    
   9020000   1231.3798     -2135.5405      81.335015     -2054.2055    
   9030000   1251.8233     -2131.987       82.68535      -2049.3017    
   9040000   1147.6787     -2136.8682      75.8064       -2061.0618    
   9050000   1234.7153     -2140.9596      81.555336     -2059.4043    
   9060000   1294.0898     -2137.2446      85.477131     -2051.7675    
   9070000   1248.1473     -2143.8081      82.442545     -2061.3655    
   9080000   1216.2273     -2141.3805      80.334163     -2061.0463    
   9090000   1140.1216     -2138.8473      75.307237     -2063.5401    
   9100000   1160.7796     -2138.7829      76.67174      -2062.1111    
   9110000   1140.0317     -2138.7667      75.301297     -2063.4654    
   9120000   1234.9747     -2136.6116      81.572468     -2055.0391    
   9130000   1245.6704     -2140.6499      82.278939     -2058.371     
   9140000   1180.5508     -2134.8828      77.977666     -2056.9051    
   9150000   1242.3958     -2138.1216      82.062648     -2056.0589    
   9160000   1248.5505     -2136.637       82.469175     -2054.1678    
   9170000   1179.7614     -2134.9896      77.925521     -2057.0641    
   9180000   1156.061      -2137.7937      76.360067     -2061.4336    
   9190000   1155.0855     -2136.0706      76.295632     -2059.7749    
   9200000   1192.5771     -2142.3575      78.772022     -2063.5855    
   9210000   1262.0193     -2140.2997      83.358815     -2056.9409    
   9220000   1165.3989     -2136.1048      76.97685      -2059.128     
   9230000   1133.5787     -2134.3163      74.875063     -2059.4412    
   9240000   1193.885      -2131.1618      78.858413     -2052.3034    
   9250000   1162.3591     -2133.9777      76.776064     -2057.2016    
   9260000   1213.465      -2130.3608      80.151713     -2050.2091    
   9270000   1179.545      -2138.0727      77.91123      -2060.1615    
   9280000   1222.1201     -2136.5076      80.723396     -2055.7842    
   9290000   1175.6161     -2136.5783      77.651715     -2058.9266    
   9300000   1154.8945     -2135.414       76.283017     -2059.131     
   9310000   1205.4451     -2129.9391      79.62198      -2050.3171    
   9320000   1283.4689     -2136.3629      84.775603     -2051.5873    
   9330000   1231.3897     -2134.499       81.335672     -2053.1633    
   9340000   1268.4147     -2132.8987      83.781243     -2049.1175    
   9350000   1190.3535     -2143.2486      78.625149     -2064.6234    
   9360000   1191.0753     -2138.6136      78.672827     -2059.9408    
   9370000   1166.5022     -2138.2271      77.049723     -2061.1774    
   9380000   1156.1316     -2134.1159      76.36473      -2057.7512    
   9390000   1166.8203     -2133.335       77.070737     -2056.2642    
   9400000   1213.1567     -2139.4327      80.131343     -2059.3014    
   9410000   1246.2891     -2140.9064      82.319804     -2058.5866    
   9420000   1277.6758     -2142.0263      84.392957     -2057.6334    
   9430000   1167.1153     -2138.321       77.090223     -2061.2307    
   9440000   1157.4977     -2139.9666      76.454959     -2063.5116    
   9450000   1143.6354     -2133.9276      75.539332     -2058.3882    
   9460000   1209.0209     -2134.7495      79.858167     -2054.8914    
   9470000   1213.9513     -2140.2738      80.18383      -2060.09      
   9480000   1183.8899     -2138.2025      78.198219     -2060.0043    
   9490000   1261.6016     -2137.6437      83.331224     -2054.3124    
   9500000   1183.2813     -2137.538       78.158019     -2059.38      
   9510000   1195.9784     -2131.8369      78.996687     -2052.8402    
   9520000   1228.2235     -2136.411       81.126539     -2055.2844    
   9530000   1169.7287     -2136.914       77.262841     -2059.6512    
   9540000   1160.6469     -2133.7601      76.662974     -2057.0972    
   9550000   1160.7094     -2138.7542      76.667098     -2062.0871    
   9560000   1244.6035     -2133.4691      82.208466     -2051.2606    
   9570000   1218.9894     -2144.3389      80.516608     -2063.8223    
   9580000   1207.8438     -2137.9108      79.780421     -2058.1304    
   9590000   1278.8485     -2134.9582      84.470418     -2050.4877    
   9600000   1244.1575     -2142.6674      82.179009     -2060.4884    
   9610000   1192.2975     -2131.9515      78.753556     -2053.198     
   9620000   1211.437      -2132.5297      80.017755     -2052.512     
   9630000   1233.11       -2136.9246      81.449298     -2055.4753    
   9640000   1218.7111     -2137.0784      80.498225     -2056.5801    
   9650000   1209.7906     -2138.9577      79.909009     -2059.0487    
   9660000   1187.2576     -2139.5702      78.420663     -2061.1495    
   9670000   1192.1656     -2135.4866      78.744845     -2056.7418    
   9680000   1234.0906     -2141.2164      81.514072     -2059.7023    
   9690000   1168.1897     -2134.6575      77.161191     -2057.4963    
   9700000   1232.5143     -2131.7255      81.409955     -2050.3155    
   9710000   1212.7402     -2133.573       80.103838     -2053.4692    
   9720000   1204.2696     -2139.7502      79.544335     -2060.2059    
   9730000   1217.5709     -2136.812       80.42291      -2056.3891    
   9740000   1180.1997     -2134.4387      77.95447      -2056.4843    
   9750000   1199.3398     -2132.5296      79.218716     -2053.3109    
   9760000   1229.6074     -2134.7257      81.217947     -2053.5078    
   9770000   1144.4216     -2131.3391      75.591259     -2055.7478    
   9780000   1226.1968     -2136.7459      80.992673     -2055.7532    
   9790000   1201.9929     -2137.7121      79.393956     -2058.3182    
   9800000   1219.3845     -2134.2141      80.542702     -2053.6714    
   9810000   1191.7305     -2137.904       78.716106     -2059.1879    
   9820000   1146.8101     -2133.3815      75.749025     -2057.6325    
   9830000   1199.1807     -2135.76        79.208201     -2056.5518    
   9840000   1183.4719     -2133.7664      78.170611     -2055.5958    
   9850000   1208.6429     -2135.1178      79.833198     -2055.2846    
   9860000   1192.6233     -2139.7791      78.775077     -2061.0041    
   9870000   1217.8464     -2135.4848      80.441109     -2055.0437    
   9880000   1207.4318     -2133.0996      79.753209     -2053.3464    
   9890000   1155.2239     -2137.3238      76.304773     -2061.019     
   9900000   1241.0134     -2137.0053      81.971337     -2055.0339    
   9910000   1226.183      -2137.7875      80.991759     -2056.7957    
   9920000   1147.4791     -2133.6547      75.793215     -2057.8615    
   9930000   1228.4958     -2132.9056      81.144526     -2051.7611    
   9940000   1199.3916     -2135.6575      79.222136     -2056.4354    
   9950000   1184.6297     -2136.296       78.247081     -2058.0489    
   9960000   1143.2934     -2137.3384      75.516742     -2061.8216    
   9970000   1145.5528     -2135.7306      75.665979     -2060.0646    
   9980000   1201.3849     -2138.193       79.353799     -2058.8392    
   9990000   1162.2186     -2128.7672      76.766785     -2052.0004    
  10000000   1180.2749     -2142.8335      77.959438     -2064.8741    
Loop time of 4611.14 on 1 procs for 10000000 steps with 512 atoms

Performance: 187.372 ns/day, 0.128 hours/ns, 2168.659 timesteps/s, 1.110 Matom-step/s
97.8% CPU use with 1 MPI tasks x 1 OpenMP threads

MPI task timing breakdown:
Section |  min time  |  avg time  |  max time  |%varavg| %total
---------------------------------------------------------------
Pair    | 4457.9     | 4457.9     | 4457.9     |   0.0 | 96.68
Neigh   | 2.35       | 2.35       | 2.35       |   0.0 |  0.05
Comm    | 37.712     | 37.712     | 37.712     |   0.0 |  0.82
Output  | 53.471     | 53.471     | 53.471     |   0.0 |  1.16
Modify  | 47.917     | 47.917     | 47.917     |   0.0 |  1.04
Other   |            | 11.81      |            |       |  0.26

Nlocal:            512 ave         512 max         512 min
Histogram: 1 0 0 0 0 0 0 0 0 0
Nghost:           1451 ave        1451 max        1451 min
Histogram: 1 0 0 0 0 0 0 0 0 0
Neighs:              0 ave           0 max           0 min
Histogram: 1 0 0 0 0 0 0 0 0 0
FullNghs:        18284 ave       18284 max       18284 min
Histogram: 1 0 0 0 0 0 0 0 0 0

Total # of neighbors = 18284
Ave neighs/atom = 35.710938
Neighbor list builds = 3535
Dangerous builds = 0

write_data      FINAL_STRUCTURE_T1200K_C20
System init for write_data ...
Total wall time: 1:16:51
