LAMMPS data file via write_data, version 29 Aug 2024, timestep = 0, units = metal

512 atoms
2 atom types

0.00000000 21.75660358 xlo xhi
0.00000000 21.75660358 ylo yhi
0.00000000 21.75660358 zlo zhi

Masses

1 28.0855
2 12.011    # C

Atoms # atomic

1 1 0.00000000 0.00000000 0.00000000 0 0 0
2 1 0.00000000 2.71957545 2.71957545 0 0 0
3 1 2.71957545 0.00000000 2.71957545 0 0 0
4 1 2.71957545 2.71957545 0.00000000 0 0 0
5 1 1.35978772 1.35978772 1.35978772 0 0 0
9 1 5.43915090 0.00000000 0.00000000 0 0 0
10 1 5.43915090 2.71957545 2.71957545 0 0 0
11 1 8.15872634 0.00000000 2.71957545 0 0 0
12 1 8.15872634 2.71957545 0.00000000 0 0 0
13 1 6.79893862 1.35978772 1.35978772 0 0 0
17 1 10.87830179 0.00000000 0.00000000 0 0 0
18 1 10.87830179 2.71957545 2.71957545 0 0 0
21 1 12.23808952 1.35978772 1.35978772 0 0 0
19 1 13.59787724 0.00000000 2.71957545 0 0 0
20 1 13.59787724 2.71957545 0.00000000 0 0 0
25 1 16.31745269 0.00000000 0.00000000 0 0 0
26 1 16.31745269 2.71957545 2.71957545 0 0 0
29 1 17.67724041 1.35978772 1.35978772 0 0 0
27 1 19.03702814 0.00000000 2.71957545 0 0 0
28 1 19.03702814 2.71957545 0.00000000 0 0 0
33 1 0.00000000 5.43915090 0.00000000 0 0 0
35 1 2.71957545 5.43915090 2.71957545 0 0 0
8 1 4.07936317 4.07936317 1.35978772 0 0 0
41 1 5.43915090 5.43915090 0.00000000 0 0 0
43 1 8.15872634 5.43915090 2.71957545 0 0 0
16 1 9.51851407 4.07936317 1.35978772 0 0 0
49 1 10.87830179 5.43915090 0.00000000 0 0 0
24 1 14.95766496 4.07936317 1.35978772 0 0 0
51 1 13.59787724 5.43915090 2.71957545 0 0 0
57 1 16.31745269 5.43915090 0.00000000 0 0 0
32 1 20.39681586 4.07936317 1.35978772 0 0 0
59 1 19.03702814 5.43915090 2.71957545 0 0 0
34 1 0.00000000 8.15872634 2.71957545 0 0 0
36 1 2.71957545 8.15872634 0.00000000 0 0 0
37 1 1.35978772 6.79893862 1.35978772 0 0 0
42 1 5.43915090 8.15872634 2.71957545 0 0 0
44 1 8.15872634 8.15872634 0.00000000 0 0 0
45 1 6.79893862 6.79893862 1.35978772 0 0 0
50 1 10.87830179 8.15872634 2.71957545 0 0 0
53 1 12.23808952 6.79893862 1.35978772 0 0 0
52 1 13.59787724 8.15872634 0.00000000 0 0 0
58 1 16.31745269 8.15872634 2.71957545 0 0 0
61 1 17.67724041 6.79893862 1.35978772 0 0 0
60 1 19.03702814 8.15872634 0.00000000 0 0 0
65 1 0.00000000 10.87830179 0.00000000 0 0 0
67 1 2.71957545 10.87830179 2.71957545 0 0 0
69 1 1.35978772 12.23808952 1.35978772 0 0 0
40 1 4.07936317 9.51851407 1.35978772 0 0 0
73 1 5.43915090 10.87830179 0.00000000 0 0 0
75 1 8.15872634 10.87830179 2.71957545 0 0 0
77 1 6.79893862 12.23808952 1.35978772 0 0 0
48 1 9.51851407 9.51851407 1.35978772 0 0 0
81 1 10.87830179 10.87830179 0.00000000 0 0 0
85 1 12.23808952 12.23808952 1.35978772 0 0 0
56 1 14.95766496 9.51851407 1.35978772 0 0 0
83 1 13.59787724 10.87830179 2.71957545 0 0 0
89 1 16.31745269 10.87830179 0.00000000 0 0 0
93 1 17.67724041 12.23808952 1.35978772 0 0 0
64 1 20.39681586 9.51851407 1.35978772 0 0 0
91 1 19.03702814 10.87830179 2.71957545 0 0 0
66 1 0.00000000 13.59787724 2.71957545 0 0 0
68 1 2.71957545 13.59787724 0.00000000 0 0 0
72 1 4.07936317 14.95766496 1.35978772 0 0 0
74 1 5.43915090 13.59787724 2.71957545 0 0 0
76 1 8.15872634 13.59787724 0.00000000 0 0 0
80 1 9.51851407 14.95766496 1.35978772 0 0 0
82 1 10.87830179 13.59787724 2.71957545 0 0 0
84 1 13.59787724 13.59787724 0.00000000 0 0 0
88 1 14.95766496 14.95766496 1.35978772 0 0 0
90 1 16.31745269 13.59787724 2.71957545 0 0 0
92 1 19.03702814 13.59787724 0.00000000 0 0 0
96 1 20.39681586 14.95766496 1.35978772 0 0 0
97 1 0.00000000 16.31745269 0.00000000 0 0 0
99 1 2.71957545 16.31745269 2.71957545 0 0 0
101 1 1.35978772 17.67724041 1.35978772 0 0 0
105 1 5.43915090 16.31745269 0.00000000 0 0 0
107 1 8.15872634 16.31745269 2.71957545 0 0 0
109 2 6.79893862 17.67724041 1.35978772 0 0 0
113 1 10.87830179 16.31745269 0.00000000 0 0 0
117 1 12.23808952 17.67724041 1.35978772 0 0 0
115 1 13.59787724 16.31745269 2.71957545 0 0 0
121 1 16.31745269 16.31745269 0.00000000 0 0 0
125 1 17.67724041 17.67724041 1.35978772 0 0 0
123 1 19.03702814 16.31745269 2.71957545 0 0 0
98 1 0.00000000 19.03702814 2.71957545 0 0 0
100 1 2.71957545 19.03702814 0.00000000 0 0 0
104 1 4.07936317 20.39681586 1.35978772 0 0 0
106 1 5.43915090 19.03702814 2.71957545 0 0 0
108 1 8.15872634 19.03702814 0.00000000 0 0 0
112 1 9.51851407 20.39681586 1.35978772 0 0 0
114 1 10.87830179 19.03702814 2.71957545 0 0 0
116 1 13.59787724 19.03702814 0.00000000 0 0 0
120 1 14.95766496 20.39681586 1.35978772 0 0 0
122 1 16.31745269 19.03702814 2.71957545 0 0 0
124 1 19.03702814 19.03702814 0.00000000 0 0 0
128 1 20.39681586 20.39681586 1.35978772 0 0 0
129 1 0.00000000 0.00000000 5.43915090 0 0 0
132 1 2.71957545 2.71957545 5.43915090 0 0 0
7 1 4.07936317 1.35978772 4.07936317 0 0 0
137 1 5.43915090 0.00000000 5.43915090 0 0 0
140 1 8.15872634 2.71957545 5.43915090 0 0 0
15 1 9.51851407 1.35978772 4.07936317 0 0 0
145 1 10.87830179 0.00000000 5.43915090 0 0 0
23 1 14.95766496 1.35978772 4.07936317 0 0 0
148 1 13.59787724 2.71957545 5.43915090 0 0 0
153 1 16.31745269 0.00000000 5.43915090 0 0 0
31 1 20.39681586 1.35978772 4.07936317 0 0 0
156 1 19.03702814 2.71957545 5.43915090 0 0 0
6 1 1.35978772 4.07936317 4.07936317 0 0 0
161 1 0.00000000 5.43915090 5.43915090 0 0 0
169 1 5.43915090 5.43915090 5.43915090 0 0 0
14 1 6.79893862 4.07936317 4.07936317 0 0 0
22 1 12.23808952 4.07936317 4.07936317 0 0 0
177 1 10.87830179 5.43915090 5.43915090 0 0 0
30 1 17.67724041 4.07936317 4.07936317 0 0 0
185 1 16.31745269 5.43915090 5.43915090 0 0 0
164 1 2.71957545 8.15872634 5.43915090 0 0 0
39 1 4.07936317 6.79893862 4.07936317 0 0 0
172 1 8.15872634 8.15872634 5.43915090 0 0 0
47 1 9.51851407 6.79893862 4.07936317 0 0 0
55 2 14.95766496 6.79893862 4.07936317 0 0 0
180 1 13.59787724 8.15872634 5.43915090 0 0 0
63 1 20.39681586 6.79893862 4.07936317 0 0 0
188 1 19.03702814 8.15872634 5.43915090 0 0 0
38 1 1.35978772 9.51851407 4.07936317 0 0 0
193 1 0.00000000 10.87830179 5.43915090 0 0 0
71 1 4.07936317 12.23808952 4.07936317 0 0 0
201 1 5.43915090 10.87830179 5.43915090 0 0 0
46 1 6.79893862 9.51851407 4.07936317 0 0 0
54 1 12.23808952 9.51851407 4.07936317 0 0 0
79 1 9.51851407 12.23808952 4.07936317 0 0 0
209 2 10.87830179 10.87830179 5.43915090 0 0 0
87 1 14.95766496 12.23808952 4.07936317 0 0 0
62 1 17.67724041 9.51851407 4.07936317 0 0 0
217 2 16.31745269 10.87830179 5.43915090 0 0 0
95 1 20.39681586 12.23808952 4.07936317 0 0 0
70 1 1.35978772 14.95766496 4.07936317 0 0 0
196 1 2.71957545 13.59787724 5.43915090 0 0 0
78 1 6.79893862 14.95766496 4.07936317 0 0 0
204 1 8.15872634 13.59787724 5.43915090 0 0 0
86 1 12.23808952 14.95766496 4.07936317 0 0 0
212 2 13.59787724 13.59787724 5.43915090 0 0 0
94 1 17.67724041 14.95766496 4.07936317 0 0 0
220 1 19.03702814 13.59787724 5.43915090 0 0 0
225 1 0.00000000 16.31745269 5.43915090 0 0 0
103 1 4.07936317 17.67724041 4.07936317 0 0 0
233 1 5.43915090 16.31745269 5.43915090 0 0 0
111 1 9.51851407 17.67724041 4.07936317 0 0 0
241 1 10.87830179 16.31745269 5.43915090 0 0 0
119 1 14.95766496 17.67724041 4.07936317 0 0 0
249 1 16.31745269 16.31745269 5.43915090 0 0 0
127 1 20.39681586 17.67724041 4.07936317 0 0 0
102 1 1.35978772 20.39681586 4.07936317 0 0 0
228 1 2.71957545 19.03702814 5.43915090 0 0 0
110 1 6.79893862 20.39681586 4.07936317 0 0 0
236 1 8.15872634 19.03702814 5.43915090 0 0 0
118 1 12.23808952 20.39681586 4.07936317 0 0 0
244 2 13.59787724 19.03702814 5.43915090 0 0 0
126 1 17.67724041 20.39681586 4.07936317 0 0 0
252 1 19.03702814 19.03702814 5.43915090 0 0 0
130 1 0.00000000 2.71957545 8.15872634 0 0 0
131 1 2.71957545 0.00000000 8.15872634 0 0 0
133 1 1.35978772 1.35978772 6.79893862 0 0 0
138 1 5.43915090 2.71957545 8.15872634 0 0 0
139 1 8.15872634 0.00000000 8.15872634 0 0 0
141 1 6.79893862 1.35978772 6.79893862 0 0 0
146 1 10.87830179 2.71957545 8.15872634 0 0 0
149 1 12.23808952 1.35978772 6.79893862 0 0 0
147 1 13.59787724 0.00000000 8.15872634 0 0 0
154 1 16.31745269 2.71957545 8.15872634 0 0 0
157 1 17.67724041 1.35978772 6.79893862 0 0 0
155 1 19.03702814 0.00000000 8.15872634 0 0 0
163 1 2.71957545 5.43915090 8.15872634 0 0 0
136 1 4.07936317 4.07936317 6.79893862 0 0 0
171 1 8.15872634 5.43915090 8.15872634 0 0 0
144 1 9.51851407 4.07936317 6.79893862 0 0 0
152 1 14.95766496 4.07936317 6.79893862 0 0 0
179 1 13.59787724 5.43915090 8.15872634 0 0 0
160 1 20.39681586 4.07936317 6.79893862 0 0 0
187 1 19.03702814 5.43915090 8.15872634 0 0 0
162 1 0.00000000 8.15872634 8.15872634 0 0 0
165 1 1.35978772 6.79893862 6.79893862 0 0 0
170 1 5.43915090 8.15872634 8.15872634 0 0 0
173 1 6.79893862 6.79893862 6.79893862 0 0 0
178 1 10.87830179 8.15872634 8.15872634 0 0 0
181 1 12.23808952 6.79893862 6.79893862 0 0 0
186 1 16.31745269 8.15872634 8.15872634 0 0 0
189 1 17.67724041 6.79893862 6.79893862 0 0 0
195 1 2.71957545 10.87830179 8.15872634 0 0 0
197 1 1.35978772 12.23808952 6.79893862 0 0 0
168 1 4.07936317 9.51851407 6.79893862 0 0 0
203 1 8.15872634 10.87830179 8.15872634 0 0 0
205 1 6.79893862 12.23808952 6.79893862 0 0 0
176 1 9.51851407 9.51851407 6.79893862 0 0 0
213 1 12.23808952 12.23808952 6.79893862 0 0 0
184 1 14.95766496 9.51851407 6.79893862 0 0 0
211 1 13.59787724 10.87830179 8.15872634 0 0 0
221 1 17.67724041 12.23808952 6.79893862 0 0 0
192 1 20.39681586 9.51851407 6.79893862 0 0 0
219 1 19.03702814 10.87830179 8.15872634 0 0 0
194 1 0.00000000 13.59787724 8.15872634 0 0 0
200 1 4.07936317 14.95766496 6.79893862 0 0 0
202 1 5.43915090 13.59787724 8.15872634 0 0 0
208 1 9.51851407 14.95766496 6.79893862 0 0 0
210 1 10.87830179 13.59787724 8.15872634 0 0 0
216 1 14.95766496 14.95766496 6.79893862 0 0 0
218 1 16.31745269 13.59787724 8.15872634 0 0 0
224 1 20.39681586 14.95766496 6.79893862 0 0 0
227 2 2.71957545 16.31745269 8.15872634 0 0 0
229 1 1.35978772 17.67724041 6.79893862 0 0 0
235 1 8.15872634 16.31745269 8.15872634 0 0 0
237 1 6.79893862 17.67724041 6.79893862 0 0 0
245 1 12.23808952 17.67724041 6.79893862 0 0 0
243 2 13.59787724 16.31745269 8.15872634 0 0 0
253 1 17.67724041 17.67724041 6.79893862 0 0 0
251 1 19.03702814 16.31745269 8.15872634 0 0 0
226 1 0.00000000 19.03702814 8.15872634 0 0 0
232 1 4.07936317 20.39681586 6.79893862 0 0 0
234 1 5.43915090 19.03702814 8.15872634 0 0 0
240 1 9.51851407 20.39681586 6.79893862 0 0 0
242 1 10.87830179 19.03702814 8.15872634 0 0 0
248 1 14.95766496 20.39681586 6.79893862 0 0 0
250 1 16.31745269 19.03702814 8.15872634 0 0 0
256 1 20.39681586 20.39681586 6.79893862 0 0 0
257 1 0.00000000 0.00000000 10.87830179 0 0 0
260 1 2.71957545 2.71957545 10.87830179 0 0 0
261 1 1.35978772 1.35978772 12.23808952 0 0 0
135 1 4.07936317 1.35978772 9.51851407 0 0 0
265 1 5.43915090 0.00000000 10.87830179 0 0 0
268 1 8.15872634 2.71957545 10.87830179 0 0 0
269 1 6.79893862 1.35978772 12.23808952 0 0 0
143 1 9.51851407 1.35978772 9.51851407 0 0 0
273 1 10.87830179 0.00000000 10.87830179 0 0 0
277 1 12.23808952 1.35978772 12.23808952 0 0 0
151 1 14.95766496 1.35978772 9.51851407 0 0 0
276 1 13.59787724 2.71957545 10.87830179 0 0 0
281 1 16.31745269 0.00000000 10.87830179 0 0 0
285 1 17.67724041 1.35978772 12.23808952 0 0 0
159 1 20.39681586 1.35978772 9.51851407 0 0 0
284 1 19.03702814 2.71957545 10.87830179 0 0 0
134 1 1.35978772 4.07936317 9.51851407 0 0 0
289 1 0.00000000 5.43915090 10.87830179 0 0 0
264 1 4.07936317 4.07936317 12.23808952 0 0 0
297 1 5.43915090 5.43915090 10.87830179 0 0 0
142 1 6.79893862 4.07936317 9.51851407 0 0 0
150 1 12.23808952 4.07936317 9.51851407 0 0 0
272 1 9.51851407 4.07936317 12.23808952 0 0 0
305 1 10.87830179 5.43915090 10.87830179 0 0 0
280 1 14.95766496 4.07936317 12.23808952 0 0 0
158 1 17.67724041 4.07936317 9.51851407 0 0 0
313 1 16.31745269 5.43915090 10.87830179 0 0 0
288 1 20.39681586 4.07936317 12.23808952 0 0 0
292 1 2.71957545 8.15872634 10.87830179 0 0 0
293 1 1.35978772 6.79893862 12.23808952 0 0 0
167 1 4.07936317 6.79893862 9.51851407 0 0 0
300 1 8.15872634 8.15872634 10.87830179 0 0 0
301 1 6.79893862 6.79893862 12.23808952 0 0 0
175 1 9.51851407 6.79893862 9.51851407 0 0 0
309 1 12.23808952 6.79893862 12.23808952 0 0 0
183 1 14.95766496 6.79893862 9.51851407 0 0 0
308 1 13.59787724 8.15872634 10.87830179 0 0 0
317 1 17.67724041 6.79893862 12.23808952 0 0 0
191 2 20.39681586 6.79893862 9.51851407 0 0 0
316 1 19.03702814 8.15872634 10.87830179 0 0 0
166 1 1.35978772 9.51851407 9.51851407 0 0 0
321 1 0.00000000 10.87830179 10.87830179 0 0 0
325 1 1.35978772 12.23808952 12.23808952 0 0 0
199 1 4.07936317 12.23808952 9.51851407 0 0 0
296 1 4.07936317 9.51851407 12.23808952 0 0 0
329 1 5.43915090 10.87830179 10.87830179 0 0 0
174 1 6.79893862 9.51851407 9.51851407 0 0 0
333 1 6.79893862 12.23808952 12.23808952 0 0 0
182 1 12.23808952 9.51851407 9.51851407 0 0 0
207 1 9.51851407 12.23808952 9.51851407 0 0 0
304 1 9.51851407 9.51851407 12.23808952 0 0 0
337 1 10.87830179 10.87830179 10.87830179 0 0 0
341 1 12.23808952 12.23808952 12.23808952 0 0 0
215 1 14.95766496 12.23808952 9.51851407 0 0 0
312 1 14.95766496 9.51851407 12.23808952 0 0 0
190 1 17.67724041 9.51851407 9.51851407 0 0 0
345 1 16.31745269 10.87830179 10.87830179 0 0 0
349 2 17.67724041 12.23808952 12.23808952 0 0 0
223 1 20.39681586 12.23808952 9.51851407 0 0 0
320 1 20.39681586 9.51851407 12.23808952 0 0 0
198 1 1.35978772 14.95766496 9.51851407 0 0 0
324 1 2.71957545 13.59787724 10.87830179 0 0 0
328 1 4.07936317 14.95766496 12.23808952 0 0 0
206 1 6.79893862 14.95766496 9.51851407 0 0 0
332 1 8.15872634 13.59787724 10.87830179 0 0 0
214 1 12.23808952 14.95766496 9.51851407 0 0 0
336 1 9.51851407 14.95766496 12.23808952 0 0 0
340 1 13.59787724 13.59787724 10.87830179 0 0 0
344 1 14.95766496 14.95766496 12.23808952 0 0 0
222 1 17.67724041 14.95766496 9.51851407 0 0 0
348 1 19.03702814 13.59787724 10.87830179 0 0 0
352 1 20.39681586 14.95766496 12.23808952 0 0 0
353 1 0.00000000 16.31745269 10.87830179 0 0 0
357 1 1.35978772 17.67724041 12.23808952 0 0 0
231 1 4.07936317 17.67724041 9.51851407 0 0 0
361 2 5.43915090 16.31745269 10.87830179 0 0 0
365 1 6.79893862 17.67724041 12.23808952 0 0 0
239 1 9.51851407 17.67724041 9.51851407 0 0 0
369 1 10.87830179 16.31745269 10.87830179 0 0 0
373 1 12.23808952 17.67724041 12.23808952 0 0 0
247 1 14.95766496 17.67724041 9.51851407 0 0 0
377 1 16.31745269 16.31745269 10.87830179 0 0 0
381 1 17.67724041 17.67724041 12.23808952 0 0 0
255 1 20.39681586 17.67724041 9.51851407 0 0 0
230 1 1.35978772 20.39681586 9.51851407 0 0 0
356 2 2.71957545 19.03702814 10.87830179 0 0 0
360 1 4.07936317 20.39681586 12.23808952 0 0 0
238 1 6.79893862 20.39681586 9.51851407 0 0 0
364 1 8.15872634 19.03702814 10.87830179 0 0 0
246 1 12.23808952 20.39681586 9.51851407 0 0 0
368 1 9.51851407 20.39681586 12.23808952 0 0 0
372 1 13.59787724 19.03702814 10.87830179 0 0 0
376 1 14.95766496 20.39681586 12.23808952 0 0 0
254 1 17.67724041 20.39681586 9.51851407 0 0 0
380 1 19.03702814 19.03702814 10.87830179 0 0 0
384 1 20.39681586 20.39681586 12.23808952 0 0 0
258 1 0.00000000 2.71957545 13.59787724 0 0 0
259 1 2.71957545 0.00000000 13.59787724 0 0 0
263 1 4.07936317 1.35978772 14.95766496 0 0 0
266 1 5.43915090 2.71957545 13.59787724 0 0 0
267 1 8.15872634 0.00000000 13.59787724 0 0 0
271 1 9.51851407 1.35978772 14.95766496 0 0 0
274 1 10.87830179 2.71957545 13.59787724 0 0 0
275 1 13.59787724 0.00000000 13.59787724 0 0 0
279 1 14.95766496 1.35978772 14.95766496 0 0 0
282 1 16.31745269 2.71957545 13.59787724 0 0 0
283 1 19.03702814 0.00000000 13.59787724 0 0 0
287 2 20.39681586 1.35978772 14.95766496 0 0 0
262 1 1.35978772 4.07936317 14.95766496 0 0 0
291 1 2.71957545 5.43915090 13.59787724 0 0 0
270 1 6.79893862 4.07936317 14.95766496 0 0 0
299 1 8.15872634 5.43915090 13.59787724 0 0 0
278 1 12.23808952 4.07936317 14.95766496 0 0 0
307 1 13.59787724 5.43915090 13.59787724 0 0 0
286 1 17.67724041 4.07936317 14.95766496 0 0 0
315 1 19.03702814 5.43915090 13.59787724 0 0 0
290 1 0.00000000 8.15872634 13.59787724 0 0 0
295 1 4.07936317 6.79893862 14.95766496 0 0 0
298 1 5.43915090 8.15872634 13.59787724 0 0 0
303 1 9.51851407 6.79893862 14.95766496 0 0 0
306 1 10.87830179 8.15872634 13.59787724 0 0 0
311 1 14.95766496 6.79893862 14.95766496 0 0 0
314 1 16.31745269 8.15872634 13.59787724 0 0 0
319 1 20.39681586 6.79893862 14.95766496 0 0 0
294 1 1.35978772 9.51851407 14.95766496 0 0 0
323 1 2.71957545 10.87830179 13.59787724 0 0 0
327 1 4.07936317 12.23808952 14.95766496 0 0 0
302 1 6.79893862 9.51851407 14.95766496 0 0 0
331 1 8.15872634 10.87830179 13.59787724 0 0 0
310 1 12.23808952 9.51851407 14.95766496 0 0 0
335 1 9.51851407 12.23808952 14.95766496 0 0 0
339 1 13.59787724 10.87830179 13.59787724 0 0 0
343 1 14.95766496 12.23808952 14.95766496 0 0 0
318 1 17.67724041 9.51851407 14.95766496 0 0 0
347 1 19.03702814 10.87830179 13.59787724 0 0 0
351 2 20.39681586 12.23808952 14.95766496 0 0 0
322 1 0.00000000 13.59787724 13.59787724 0 0 0
326 1 1.35978772 14.95766496 14.95766496 0 0 0
330 1 5.43915090 13.59787724 13.59787724 0 0 0
334 1 6.79893862 14.95766496 14.95766496 0 0 0
338 1 10.87830179 13.59787724 13.59787724 0 0 0
342 1 12.23808952 14.95766496 14.95766496 0 0 0
346 2 16.31745269 13.59787724 13.59787724 0 0 0
350 1 17.67724041 14.95766496 14.95766496 0 0 0
355 2 2.71957545 16.31745269 13.59787724 0 0 0
359 1 4.07936317 17.67724041 14.95766496 0 0 0
363 2 8.15872634 16.31745269 13.59787724 0 0 0
367 1 9.51851407 17.67724041 14.95766496 0 0 0
371 1 13.59787724 16.31745269 13.59787724 0 0 0
375 1 14.95766496 17.67724041 14.95766496 0 0 0
379 1 19.03702814 16.31745269 13.59787724 0 0 0
383 1 20.39681586 17.67724041 14.95766496 0 0 0
354 1 0.00000000 19.03702814 13.59787724 0 0 0
358 1 1.35978772 20.39681586 14.95766496 0 0 0
362 1 5.43915090 19.03702814 13.59787724 0 0 0
366 1 6.79893862 20.39681586 14.95766496 0 0 0
370 1 10.87830179 19.03702814 13.59787724 0 0 0
374 1 12.23808952 20.39681586 14.95766496 0 0 0
378 1 16.31745269 19.03702814 13.59787724 0 0 0
382 1 17.67724041 20.39681586 14.95766496 0 0 0
385 1 0.00000000 0.00000000 16.31745269 0 0 0
388 1 2.71957545 2.71957545 16.31745269 0 0 0
389 1 1.35978772 1.35978772 17.67724041 0 0 0
393 1 5.43915090 0.00000000 16.31745269 0 0 0
396 1 8.15872634 2.71957545 16.31745269 0 0 0
397 1 6.79893862 1.35978772 17.67724041 0 0 0
401 1 10.87830179 0.00000000 16.31745269 0 0 0
405 1 12.23808952 1.35978772 17.67724041 0 0 0
404 1 13.59787724 2.71957545 16.31745269 0 0 0
409 1 16.31745269 0.00000000 16.31745269 0 0 0
413 1 17.67724041 1.35978772 17.67724041 0 0 0
412 1 19.03702814 2.71957545 16.31745269 0 0 0
417 1 0.00000000 5.43915090 16.31745269 0 0 0
392 1 4.07936317 4.07936317 17.67724041 0 0 0
425 1 5.43915090 5.43915090 16.31745269 0 0 0
400 2 9.51851407 4.07936317 17.67724041 0 0 0
433 1 10.87830179 5.43915090 16.31745269 0 0 0
408 2 14.95766496 4.07936317 17.67724041 0 0 0
441 1 16.31745269 5.43915090 16.31745269 0 0 0
416 1 20.39681586 4.07936317 17.67724041 0 0 0
420 1 2.71957545 8.15872634 16.31745269 0 0 0
421 1 1.35978772 6.79893862 17.67724041 0 0 0
428 1 8.15872634 8.15872634 16.31745269 0 0 0
429 1 6.79893862 6.79893862 17.67724041 0 0 0
437 1 12.23808952 6.79893862 17.67724041 0 0 0
436 1 13.59787724 8.15872634 16.31745269 0 0 0
445 1 17.67724041 6.79893862 17.67724041 0 0 0
444 1 19.03702814 8.15872634 16.31745269 0 0 0
449 1 0.00000000 10.87830179 16.31745269 0 0 0
453 1 1.35978772 12.23808952 17.67724041 0 0 0
424 1 4.07936317 9.51851407 17.67724041 0 0 0
457 1 5.43915090 10.87830179 16.31745269 0 0 0
461 1 6.79893862 12.23808952 17.67724041 0 0 0
432 1 9.51851407 9.51851407 17.67724041 0 0 0
465 1 10.87830179 10.87830179 16.31745269 0 0 0
469 1 12.23808952 12.23808952 17.67724041 0 0 0
440 1 14.95766496 9.51851407 17.67724041 0 0 0
473 1 16.31745269 10.87830179 16.31745269 0 0 0
477 1 17.67724041 12.23808952 17.67724041 0 0 0
448 1 20.39681586 9.51851407 17.67724041 0 0 0
452 1 2.71957545 13.59787724 16.31745269 0 0 0
456 1 4.07936317 14.95766496 17.67724041 0 0 0
460 1 8.15872634 13.59787724 16.31745269 0 0 0
464 1 9.51851407 14.95766496 17.67724041 0 0 0
468 1 13.59787724 13.59787724 16.31745269 0 0 0
472 1 14.95766496 14.95766496 17.67724041 0 0 0
476 1 19.03702814 13.59787724 16.31745269 0 0 0
480 1 20.39681586 14.95766496 17.67724041 0 0 0
481 1 0.00000000 16.31745269 16.31745269 0 0 0
485 1 1.35978772 17.67724041 17.67724041 0 0 0
489 1 5.43915090 16.31745269 16.31745269 0 0 0
493 1 6.79893862 17.67724041 17.67724041 0 0 0
497 1 10.87830179 16.31745269 16.31745269 0 0 0
501 1 12.23808952 17.67724041 17.67724041 0 0 0
505 1 16.31745269 16.31745269 16.31745269 0 0 0
509 1 17.67724041 17.67724041 17.67724041 0 0 0
484 1 2.71957545 19.03702814 16.31745269 0 0 0
488 1 4.07936317 20.39681586 17.67724041 0 0 0
492 1 8.15872634 19.03702814 16.31745269 0 0 0
496 1 9.51851407 20.39681586 17.67724041 0 0 0
500 1 13.59787724 19.03702814 16.31745269 0 0 0
504 1 14.95766496 20.39681586 17.67724041 0 0 0
508 1 19.03702814 19.03702814 16.31745269 0 0 0
512 1 20.39681586 20.39681586 17.67724041 0 0 0
386 1 0.00000000 2.71957545 19.03702814 0 0 0
387 1 2.71957545 0.00000000 19.03702814 0 0 0
391 1 4.07936317 1.35978772 20.39681586 0 0 0
394 1 5.43915090 2.71957545 19.03702814 0 0 0
395 1 8.15872634 0.00000000 19.03702814 0 0 0
399 1 9.51851407 1.35978772 20.39681586 0 0 0
402 1 10.87830179 2.71957545 19.03702814 0 0 0
403 2 13.59787724 0.00000000 19.03702814 0 0 0
407 1 14.95766496 1.35978772 20.39681586 0 0 0
410 1 16.31745269 2.71957545 19.03702814 0 0 0
411 1 19.03702814 0.00000000 19.03702814 0 0 0
415 1 20.39681586 1.35978772 20.39681586 0 0 0
390 1 1.35978772 4.07936317 20.39681586 0 0 0
419 1 2.71957545 5.43915090 19.03702814 0 0 0
398 1 6.79893862 4.07936317 20.39681586 0 0 0
427 1 8.15872634 5.43915090 19.03702814 0 0 0
406 1 12.23808952 4.07936317 20.39681586 0 0 0
435 1 13.59787724 5.43915090 19.03702814 0 0 0
414 1 17.67724041 4.07936317 20.39681586 0 0 0
443 1 19.03702814 5.43915090 19.03702814 0 0 0
418 1 0.00000000 8.15872634 19.03702814 0 0 0
423 1 4.07936317 6.79893862 20.39681586 0 0 0
426 1 5.43915090 8.15872634 19.03702814 0 0 0
431 1 9.51851407 6.79893862 20.39681586 0 0 0
434 1 10.87830179 8.15872634 19.03702814 0 0 0
439 1 14.95766496 6.79893862 20.39681586 0 0 0
442 1 16.31745269 8.15872634 19.03702814 0 0 0
447 1 20.39681586 6.79893862 20.39681586 0 0 0
422 1 1.35978772 9.51851407 20.39681586 0 0 0
451 1 2.71957545 10.87830179 19.03702814 0 0 0
455 1 4.07936317 12.23808952 20.39681586 0 0 0
430 1 6.79893862 9.51851407 20.39681586 0 0 0
459 1 8.15872634 10.87830179 19.03702814 0 0 0
438 1 12.23808952 9.51851407 20.39681586 0 0 0
463 1 9.51851407 12.23808952 20.39681586 0 0 0
467 1 13.59787724 10.87830179 19.03702814 0 0 0
471 1 14.95766496 12.23808952 20.39681586 0 0 0
446 1 17.67724041 9.51851407 20.39681586 0 0 0
475 1 19.03702814 10.87830179 19.03702814 0 0 0
479 1 20.39681586 12.23808952 20.39681586 0 0 0
450 1 0.00000000 13.59787724 19.03702814 0 0 0
454 1 1.35978772 14.95766496 20.39681586 0 0 0
458 1 5.43915090 13.59787724 19.03702814 0 0 0
462 1 6.79893862 14.95766496 20.39681586 0 0 0
466 1 10.87830179 13.59787724 19.03702814 0 0 0
470 1 12.23808952 14.95766496 20.39681586 0 0 0
474 1 16.31745269 13.59787724 19.03702814 0 0 0
478 1 17.67724041 14.95766496 20.39681586 0 0 0
483 1 2.71957545 16.31745269 19.03702814 0 0 0
487 1 4.07936317 17.67724041 20.39681586 0 0 0
491 1 8.15872634 16.31745269 19.03702814 0 0 0
495 1 9.51851407 17.67724041 20.39681586 0 0 0
499 1 13.59787724 16.31745269 19.03702814 0 0 0
503 1 14.95766496 17.67724041 20.39681586 0 0 0
507 1 19.03702814 16.31745269 19.03702814 0 0 0
511 1 20.39681586 17.67724041 20.39681586 0 0 0
482 1 0.00000000 19.03702814 19.03702814 0 0 0
486 1 1.35978772 20.39681586 20.39681586 0 0 0
490 1 5.43915090 19.03702814 19.03702814 0 0 0
494 1 6.79893862 20.39681586 20.39681586 0 0 0
498 1 10.87830179 19.03702814 19.03702814 0 0 0
502 1 12.23808952 20.39681586 20.39681586 0 0 0
506 1 16.31745269 19.03702814 19.03702814 0 0 0
510 1 17.67724041 20.39681586 20.39681586 0 0 0

Velocities

1 2.9360640995455807 8.093363526403037 -5.810689277830873
2 -2.8297069426918418 4.715799938570706 -3.67222266787102
3 -0.8823835239115866 -0.3744062988202897 -4.078074937778997
4 -2.5215978457344956 -1.765385851387066 2.3161471512934084
5 -0.3819121353000541 1.2527583889080325 5.408003094177541
9 -3.4202661401991334 -2.9684698533755385 10.16495346430569
10 1.8479014784224022 -0.10085904227021492 13.850343557539661
11 7.846886698017506 -9.189957058350942 6.579612898241392
12 -4.713796285553213 0.5527735540708051 -5.867007679573967
13 0.9150255334011163 -3.5648415469610013 2.839621125279461
17 -3.696988689077372 -4.095720952166206 -4.183922919600028
18 1.112954101836831 3.2176699026762074 8.77554961877361
21 -5.202517775453636 3.7527724894798298 -3.7781485304849096
19 -8.244553630183079 -4.081761829337226 9.523076683814516
20 -6.3123806652776215 10.226446538428512 0.549242795251771
25 0.13941889578236916 -1.779824542368609 -3.7832170501412485
26 12.094403487459374 -3.060653589805561 1.3138987273560878
29 -4.818542344467603 -2.3784678120426266 -4.728704306943704
27 -0.81485553671017 0.5781666284035969 3.933312429298074
28 5.02915311823493 1.2169844093595596 2.9093100108690364
33 1.9722398414634088 3.9555038432869005 -1.3552128306631115
35 -5.617250512630518 -5.691105634055958 2.5992363218826116
8 -1.215873959494158 4.0745279189052335 9.44066398280619
41 5.2924012534374665 -5.104054693370251 5.730856963354344
43 -1.2887358893175174 -2.5200691875870143 -5.145732309023803
16 1.037908072902128 -1.1594132259000411 -6.266968343368924
49 -3.053046899619904 5.6041532335264055 1.867801246424397
24 -7.206932249184557 -0.8020427433945047 -6.06372402103117
51 -5.411578808819758 2.282392147254241 5.501765408342948
57 11.002470227460147 -0.8794722998326793 4.649666267901355
32 5.288653021521114 7.179896297035366 -5.619722238996144
59 7.0845736802896555 0.12256730316281357 -6.435936251670402
34 2.2765629834344683 -0.3973879174816945 5.696812556868787
36 6.590509476264564 0.36408630832568106 5.490136563847402
37 3.8665436090845873 1.0644336422579814 -0.9933814647984268
42 12.359699234449423 -4.4102513507740095 -2.700103634288529
44 6.627433089016437 -11.246290690267104 1.5161732111485815
45 -1.4559805005996829 4.460332833642422 -3.165235128925226
50 2.6004723286687903 -1.0813683206193547 5.1920129400114465
53 -5.673497387630229 -4.54177398862065 1.0317031228446736
52 0.8291919421224002 9.365014929942754 -1.1496365587885642
58 3.5463768252665204 5.3802461810875135 0.006793452437121052
61 11.153377376328864 2.399489422505434 -3.7730454051009037
60 -4.893181908566229 -0.6108069731470086 -2.189731234652096
65 -0.892642803159594 -1.9629604632221969 5.8410926400002765
67 4.538847084592517 -3.463824201546203 4.41901650479735
69 -7.009632517498447 9.244865074444954 -3.0979674938614683
40 -1.5413335014802405 -2.1607260697110964 -4.638346315517727
73 -4.346359506406988 -3.7980888653251244 10.475639045908382
75 -4.298188039867928 0.4634338923048935 13.57631277148085
77 4.290061792677378 5.239879606015049 6.934732606045473
48 2.6623083929863176 10.792619260542203 5.205173074462025
81 -3.138862046556922 8.54257091705932 -0.9714841041716451
85 -7.254885734498481 -11.541596391709387 1.529924240194179
56 -4.6379710684099305 0.875559030395499 -3.401460553669463
83 3.1931417987604207 1.2193617086772368 -1.1246569037409138
89 -2.299474179977359 1.0229994056623586 -1.240558744702775
93 0.8413666082139805 3.3578241013500985 1.0984313906615637
64 1.8966001188672437 -1.3202880125829202 1.7695443537142668
91 8.106856410734697 -8.503503451679356 -5.6250615301547295
66 -1.6893245310241458 5.263822500170826 -2.252781475416746
68 -12.281961570673895 0.668453613458812 2.7385430970200724
72 7.054838399794177 6.924671182293669 -1.9545978670557542
74 1.8626735459297445 0.40802628560534837 6.615861497545843
76 -4.274825206843126 1.028138804609351 -1.60852392618451
80 -4.110279395570663 8.795971288935444 -1.4463456493340905
82 -11.337820473290098 -2.8666780123400004 2.1736381986199005
84 -2.560370024097482 4.248325724982411 3.2408593853746197
88 3.223711353718689 -6.04436603992105 -6.235239637473681
90 -6.173025788728111 7.866904517966135 8.166656617612468
92 -10.22474958809386 -3.5495230935042916 -0.6902644593240351
96 -4.505993331441997 -9.873427071745171 -2.644599354973692
97 -1.561268985634934 -3.681347855118067 -6.7629858072891444
99 0.763741919056282 -7.918039560083919 3.729782642271671
101 -6.221568322729387 5.500531278121709 2.648139444785743
105 -5.56248694756436 3.996242077176423 -8.894990902316302
107 -5.530630411783722 -9.984230709737004 0.22878572727702895
109 0.03983811925779018 10.944114543440337 -6.674608672832793
113 -0.3928442673286559 6.725508950150855 -4.651327514701245
117 -0.5523954992157738 -1.6040010042666706 -0.44084594475762867
115 -0.5946508106676976 6.331979584559406 -6.541486613418978
121 -0.6026055207291162 -5.109095024406081 0.7766757877821936
125 -5.633588047997223 0.7622363932960292 0.43251544729405306
123 9.284089544248898 -6.815655210067967 -5.085314324556908
98 -0.12444565698363143 -9.340387171381398 10.608397987293975
100 -9.314638866800736 -4.232190870583521 -4.560436153904523
104 -1.22578422178449 -3.2277671398769074 2.7301856558220243
106 -7.271407670344894 -4.552653272458428 -4.408910963221035
108 1.5397380432685595 2.330035599991602 3.502314332794733
112 1.187135857162408 -4.19693833277491 0.3520185599319911
114 9.06365795117689 2.3479057789965925 3.3252565760851756
116 -2.933520066879286 -6.477146206323322 -7.2484754392215
120 -6.7770070622296466 0.6028228540943348 -6.376663058321503
122 -0.881966274964508 6.9223431400781115 -1.74718845947631
124 -8.935774155257214 -0.6136802997682017 -3.056678270192602
128 4.00132276068253 -5.555522117445316 2.511815887375196
129 1.8725487212508805 -0.5077688899760913 -2.6302655392008023
132 -3.0663715818091104 -10.917853001248806 -3.86453018876332
7 -1.0708850661754867 3.6347562190930782 -4.3185361763258046
137 -4.17906292070995 -3.4447396753015624 1.0080235895909417