LAMMPS data file via write_data, version 10 Sep 2025, timestep = 10000000, units = metal

513 atoms
1 atom types

0 21.77481 xlo xhi
0 21.77481 ylo yhi
0 21.77481 zlo zhi

Masses

1 28.085

Atoms # atomic

7 1 1.425475405693629 1.5907776230794977 1.178676903551046 0 0 0
5 1 0.014150867663605737 2.922409009550826 2.6372940544144936 0 0 0
6 1 2.899642095500503 2.8097090978095633 21.57727458350468 0 0 -1
97 1 5.462219770883695 2.7064083826749354 2.6004172042902955 0 1 0
135 1 6.945285951493479 1.294932859470881 1.3333871310150873 0 0 0
134 1 8.184431736320088 2.6723921058228117 21.74411592889357 0 0 -1
136 1 8.06187844525373 21.69732898484724 2.7688854638511637 0 -1 0
258 1 10.713146761562037 2.8604799165086248 2.6522723333252554 0 0 0
263 1 12.09995041048824 1.4344213865569537 1.4079277990563175 0 0 0
264 1 13.6843507687633 21.762657743659574 2.565654266921408 0 -1 0
391 1 17.78590804471101 1.2785259579760697 1.3029155535656953 0 0 0
386 1 16.301913446496012 2.6397396164331766 2.8067663829896397 0 0 0
40 1 2.812720103587484 5.462253950323643 2.59738872015399 0 0 0
1 1 4.187571753150182 4.235634295863516 1.2845899315783753 0 0 0
168 1 8.178709005067327 5.625012294970458 2.555302285119751 0 0 0
129 1 9.385765599231604 4.18027168910236 1.3069748196086413 0 0 0
292 1 10.858996413515035 5.6476376270637525 21.72784045404911 0 0 -1
257 1 14.853189789580343 4.1248408303873605 1.4114648813896007 0 0 0
296 1 13.49586299562124 5.442923245047293 2.7595563041331945 0 0 0
420 1 16.184936065199086 5.33988387176131 21.724889897358516 0 0 -1
424 1 19.172004888332566 5.268027334128707 2.568672680006271 0 0 0
385 1 20.474791082274017 4.053963968207149 1.1409670097178568 0 0 0
36 1 0.03808415803217206 5.507644572486124 21.70260531060956 0 0 -1
39 1 1.2665135678207924 6.939010743870034 1.367298651680925 0 0 0
34 1 0.06555107707474761 8.349744041309243 2.841750037932961 0 0 0
162 1 5.508519423307379 8.303976398935532 2.7750191552599413 0 0 0
167 1 6.6711104497940905 7.014956630790328 1.2020037425980756 0 0 0
290 1 10.93805077243194 8.20912752101738 2.6599726734372324 0 0 0
295 1 12.432142422585834 6.848429047842225 1.2901832563903932 0 0 0
161 1 9.517951473578469 9.573824994183916 1.3907611771236283 0 0 0
294 1 13.712966480296446 8.047134958845959 21.57950571270021 0 0 -1
423 1 17.64244545755287 6.581375286845281 1.323248011947031 0 0 0
418 1 16.50973242659905 7.8931317739013815 2.845879520718186 0 0 0
422 1 18.933016158388106 7.985647839076414 21.668906417692984 0 0 -1
72 1 2.6864351505302895 10.762676916995341 2.7084914861048768 0 0 0
71 1 1.4549007283834532 12.097207041125104 1.1932416453328372 0 0 0
33 1 4.158495536547403 9.630990177675264 1.361181351097411 0 0 0
196 1 5.31975069893778 11.064903013599665 21.71222383134975 0 0 -1
200 1 7.996628170634478 10.73708563336492 2.9325321618334037 0 0 0
199 1 6.71175753756801 12.138142361692266 1.395653154612321 0 0 0
327 1 12.190185110013683 12.301664697615397 1.284685506708262 0 0 0
289 1 15.223903513184842 9.283252003042085 1.4219031519737169 0 0 0
328 1 13.549520774732127 10.832100231666557 2.5136517339898528 0 0 0
452 1 16.400818112529894 10.831581920473011 21.679185138361 0 0 -1
417 1 20.46884676622588 9.375739324843929 1.1874905802626665 0 0 0
456 1 19.12033345395713 10.886748466354545 2.5440468541696446 0 0 0
65 1 4.081670615223043 14.895536711281851 1.388232716306051 0 0 0
194 1 5.354322612407257 13.59975016862429 2.8245800289485796 0 0 0
198 1 8.126303201911078 13.482274442950908 0.03173129041331614 0 0 0
193 1 9.419328606134025 14.866377125881348 1.4084186363357516 0 0 0
322 1 10.742879352334677 13.470279537101526 2.7338806865506644 0 0 0
321 1 15.073428836620009 15.108316723697854 1.2056409798056713 0 0 0
326 1 13.666156462348528 13.607625511832317 0.023356249908555782 0 0 0
455 1 17.739313195588554 12.297304009542781 1.3044364069967973 0 0 0
450 1 16.379444951209525 13.769671704931927 2.62798648412867 0 0 0
66 1 0.1131727251734489 13.407120500199294 2.6192514626889642 0 0 0
449 1 20.400264023706274 14.833486930907812 1.3428665833338453 0 0 0
103 1 1.2035945398057666 17.472869286632225 1.3850739644173846 0 0 0
104 1 2.7455016667753456 16.42300264017764 2.822254164100624 0 0 0
231 1 6.553714344028014 17.60270212451752 1.3027015376689721 0 0 0
232 1 7.916694328409406 16.31907719969149 2.6062216257567727 0 0 0
359 1 12.124463425405148 17.67352170257435 1.3629742280785366 0 0 0
360 1 13.570579794580938 16.178024409625976 2.719685920235099 0 0 0
487 1 17.76524799837031 17.76639807841149 1.3162591485291162 0 0 0
488 1 19.02674212004033 16.355169539451694 2.573453468318508 0 0 0
8 1 2.4944465035445265 0.22816604238445493 2.6422281191718193 0 0 0
226 1 5.460215512954535 19.128752108475194 2.7227246970129757 0 0 0
125 1 3.9868835367994255 20.40978516382822 1.4622338495349532 0 0 1
225 1 9.390933975348721 20.529086469596866 1.2710982303496023 0 0 0
354 1 10.841706989903964 19.316802672506586 2.5262892071375673 0 0 0
353 1 15.032479127724558 20.331494091861643 1.4246549561640458 0 0 0
358 1 13.434786309613964 19.027620473047268 0.033296229312828274 0 0 0
482 1 16.397549049471028 19.094535628935766 2.7803777718094294 0 0 0
98 1 0.009673090291062891 18.972610962783346 2.8366799065043273 0 0 0
392 1 19.160012632028938 0.03202112014355963 2.8063694185996364 0 0 0
481 1 20.43809389966821 20.465630025917214 1.4931325048503314 0 0 0
14 1 2.588080825397158 2.7987319160106776 5.627477134407487 0 0 0
3 1 3.776938883555335 1.5317035910162853 4.049957122422374 0 0 0
140 1 5.127628884560856 0.06397027763428298 5.2788349326968795 0 0 0
142 1 8.08292600306828 2.9324886546267837 5.2298195593132695 0 0 0
131 1 9.425847612060249 1.427980301466593 3.9873437580269258 0 0 0
268 1 10.693082653657656 0.032381388722928506 5.410455933887295 0 0 0
259 1 14.968582347110274 1.2425530389870683 4.171808107407455 0 0 0
270 1 13.569101345188598 2.6691887717410885 5.429372851756006 0 0 0
387 1 20.53165751062232 1.3647051625781066 4.045648079097191 0 0 0
398 1 19.020028050916846 2.580283473168508 5.584138422418001 0 0 0
513 1 1.4127732598160234 4.195178115898611 3.9854249934932184 0 0 0
44 1 21.754067794489277 5.488727664171387 5.379106758048873 -1 0 0
133 1 5.589715120607321 5.524358363661851 5.369376242806046 0 0 0
130 1 6.8912567324498575 4.225824266431746 3.8220393890233546 0 0 0
300 1 11.007655473184316 5.183886974541745 5.438663436599375 0 0 0
261 1 12.257845379272462 4.074248918214326 4.020013068250135 0 0 0
389 1 17.74896098022642 3.9575349396996797 4.2036569043230205 0 0 0
428 1 16.46232329957535 5.245722864538233 5.55453682386815 0 0 0
46 1 2.843528332677785 8.179047631543312 5.3952342501127495 0 0 0
35 1 4.062322343443896 6.709401198876107 3.8851386170691122 0 0 0
174 1 8.152828936928762 8.060170870307065 5.420875855352735 0 0 0
163 1 9.703615350384547 6.774926111932696 4.151857742887617 0 0 0
291 1 15.061397753698985 6.508528310945271 4.1167453206215425 0 0 0
302 1 13.845118434837765 8.126842872781808 5.2443633984617914 0 0 0
430 1 19.022684025266614 8.096765474440494 5.475185594708088 0 0 0
419 1 20.281145613494743 6.866484388108101 4.050189742804951 0 0 0
37 1 1.445249107856862 9.47199543696267 4.216295594483968 0 0 0
76 1 21.643071864549082 10.897734499733772 5.370288706810159 -1 0 0
204 1 5.20815045915859 10.876346850505874 5.504718480735772 0 0 0
67 1 3.8621850565297717 12.171430441750493 4.10385314496678 0 0 0
165 1 6.759163112012665 9.651731159663301 4.486554154336212 0 0 0
195 1 9.522373519971481 12.28051776515596 4.225452999941309 0 0 0
332 1 11.085015491024937 10.815031038753544 5.343408531059658 0 0 0
293 1 12.50452282165117 9.455422434076228 3.918810755297274 0 0 0
323 1 14.882834353876321 12.34576803474178 4.035654358181217 0 0 0
421 1 17.872223256628203 9.431874108258983 4.031489820900612 0 0 0
460 1 16.359293524464846 10.91892641298345 5.356076734476685 0 0 0
451 1 20.379529656464765 12.190062690557221 3.996847793480038 0 0 0
69 1 1.3357564394833021 14.939959135358135 4.08124460255265 0 0 0
78 1 2.6873477107674075 13.65121654242365 5.250065576772271 0 0 0
197 1 6.755295655043123 14.811272289936905 3.960419675498896 0 0 0
206 1 8.003975046348206 13.70651300847616 5.5650976869617965 0 0 0
325 1 12.051050800285667 14.964555185427644 4.0299972077345325 0 0 0
334 1 13.596940201097754 13.682318218571245 5.386039898645088 0 0 0
453 1 17.72177304574637 15.091277302931717 4.119739597898019 0 0 0
462 1 19.03474367357407 13.618052084271584 5.558040010002849 0 0 0
108 1 0.05255935831043601 16.26686266790173 5.545040986604727 0 0 0
99 1 4.193599197906625 17.760877523661744 4.029889550707765 0 0 0
236 1 5.5166491976683885 16.258391612127816 5.294467962409172 0 0 0
227 1 9.597830347534549 17.654822401373906 3.8352396892029956 0 0 0
364 1 10.886033970498424 16.360072274191076 5.373489475848575 0 0 0
355 1 14.891949838716723 17.579368511905738 3.9421687648918278 0 0 0
492 1 16.336119054207412 16.290516589488856 5.535412223997971 0 0 0
483 1 20.358032000699122 17.656168085172112 4.193829891167718 0 0 0
101 1 1.3398626744596513 20.439152540055762 3.951091222921629 0 0 0
110 1 2.799817867301831 19.138772595759306 5.427199471544662 0 0 0
229 1 6.721525843499859 20.36282828301498 4.141217814736471 0 0 0
238 1 8.173567945500423 19.046296052447417 5.3587772711264385 0 0 0
357 1 12.204342378549137 20.43360880310564 4.025756225680827 0 0 0
366 1 13.638809333339529 19.06542161212297 5.293736427061011 0 0 0
396 1 16.41392376623273 21.72432010833785 5.520999612227403 0 -1 0
485 1 17.76349612883059 20.35575527485947 4.1575988490109115 0 0 0
12 1 0.0367963190857985 0.021516679318210663 5.5007514225734395 0 0 0
494 1 18.982899767869785 18.903419872755336 5.559451943484682 0 0 0
15 1 1.2548195125411883 1.5007900511278967 6.8880648902184385 0 0 0
143 1 6.346194443250165 1.9878445488271639 6.342658440533364 0 0 0
138 1 6.477476506493083 1.6006501285658952 8.585839998875553 0 0 0
266 1 10.86717232889808 2.618938609778491 8.067959117753755 0 0 0
271 1 12.238948313649432 1.3346697922514235 6.83642950985218 0 0 0
267 1 15.08734713802698 1.2610239364222071 9.626207290947843 0 0 0
394 1 16.396674282673878 2.5667083303897056 8.211040304020484 0 0 0
399 1 17.734319741064574 1.1938211817167748 6.938504771538212 0 0 0
10 1 21.61480315585383 2.69304663792916 8.33433089920188 -1 0 0
48 1 2.8913384780450713 5.585503041113381 8.206346313762046 0 0 0
9 1 4.523110341467635 3.803503060456681 6.62847562000442 0 0 0
172 1 4.473804679039031 3.7443381210691116 9.0386257862743 0 0 0
176 1 8.114602689245533 5.5276971035255675 8.157666693238129 0 0 0
137 1 9.372675174536786 4.124106629042315 6.716065593700366 0 0 0
265 1 14.811633247256832 3.9171866784107263 6.7413222542766755 0 0 0
304 1 13.786933619136535 5.427536637442327 8.128266396127799 0 0 0
393 1 20.3190155411481 4.102009309517584 6.803472479218782 0 0 0
432 1 19.150243583966684 5.594959388869529 8.145683208669407 0 0 0
47 1 1.4286380373414054 6.947412443217711 6.641121217510582 0 0 0
42 1 0.12607240625314123 8.344973027951005 8.077492791184433 0 0 0
170 1 5.526047674266875 8.325829311991491 8.281738462810438 0 0 0
175 1 6.802907434975857 6.888658828850542 6.968469371373573 0 0 0
298 1 10.94332216399476 8.233401602190972 8.252531374498679 0 0 0
303 1 12.214053320695408 6.814307385274451 6.827537790943397 0 0 0
426 1 16.302410977865588 8.309637822412563 8.298406297567919 0 0 0
431 1 17.55697605068108 6.840907029894474 6.924055591019302 0 0 0
80 1 2.679645122048957 11.066904781041725 8.052819890140448 0 0 0
79 1 1.2796413387745726 12.260939628573746 6.6464493346284135 0 0 0
41 1 3.92820040256283 9.465499738715486 7.0228958868801845 0 0 0
208 1 8.352042140317838 10.69763514150016 8.032588854881974 0 0 0
207 1 6.739526368133636 12.121271935548373 6.999991489234353 0 0 0
169 1 9.537001561610046 9.410416628821782 6.493836373740065 0 0 0
335 1 12.294803253878342 12.274815328606595 6.746523741780726 0 0 0
297 1 14.912116165430396 9.462245503566441 6.743451426638306 0 0 0
336 1 13.856618924384877 10.885645388389014 8.122865085714233 0 0 0
463 1 17.584018180105964 12.279491753044573 6.7353048798658435 0 0 0
425 1 20.321106422462467 9.521411676713372 6.744155305981089 0 0 0
464 1 19.001531780131984 11.051033927346278 8.055376228550982 0 0 0
74 1 21.644852372623372 13.382941231012486 8.143341260965837 -1 0 0
73 1 4.022620049334963 14.954096440854173 6.810621230852836 0 0 0
202 1 5.359085552880283 13.553537944573998 8.16574011172095 0 0 0
201 1 9.50101550747245 14.987253298061008 6.786592353672304 0 0 0
330 1 10.92413115132045 13.656702701709465 8.148904382876983 0 0 0
329 1 15.118421473718671 14.884944477375635 6.824192145325323 0 0 0
458 1 16.435436786100205 13.76333530864619 8.274178729960829 0 0 0
457 1 20.400097408324015 14.956511937731245 6.8440374686778975 0 0 0
111 1 1.5208653973052821 17.572732056456537 6.70124679050007 0 0 0
112 1 2.758427791823874 16.22811691153832 8.337531802323246 0 0 0
239 1 6.904829644912007 17.511748207500247 6.670310068034042 0 0 0
240 1 8.185663646893483 16.33879860380048 8.060334372645448 0 0 0
367 1 12.235954652238517 17.668583866157924 6.631400864581531 0 0 0
368 1 13.674055377097165 16.259076528203597 8.1528280543655 0 0 0
495 1 17.633424910811883 17.58323971656371 6.902516746753459 0 0 0
496 1 19.24548052648669 16.29834353842847 8.25403025979885 0 0 0
16 1 2.5314579337207066 21.70258903394216 7.966647925211414 0 -1 0
106 1 0.20693836200836305 18.9228561268657 8.112238703822193 0 0 0
105 1 4.030325231862641 20.426254264829574 6.893424687530357 0 0 0
234 1 5.511736026641873 18.936990672064955 7.989866366301579 0 0 0
144 1 8.136900286319676 21.605156343191105 8.183962229686063 0 -1 0
233 1 9.519740867531674 20.338969185127308 6.805092041869454 0 0 0
362 1 10.989070034911697 19.108290047630543 8.056716461544957 0 0 0
272 1 13.80387750556504 21.730431761743098 8.164577496554669 0 -1 0
361 1 15.09816470516429 20.258210111836007 6.8765272449362085 0 0 0
490 1 16.41414192334452 19.049912085815013 8.281656591163689 0 0 0
400 1 19.135523610237314 21.602065802909216 8.101239155979007 0 -1 0
489 1 20.484635863721785 20.135747396044057 6.839752408499684 0 0 0
22 1 2.7514450902185885 2.7149630385603425 10.830702502381078 0 0 0
23 1 1.397635805672312 1.1936100054779855 12.31620691458774 0 0 0
11 1 3.943364559370901 0.9780455328367277 9.431128474314205 0 0 0
150 1 8.217628436777453 2.6581435235000583 10.87938980080716 0 0 0
151 1 6.716924841996503 1.1922689332886134 12.278491435352755 0 0 0
139 1 9.589864624067054 1.1780239617724564 9.654699637434861 0 0 0
279 1 12.351318583505229 1.5055231034248422 12.332683896825849 0 0 0
276 1 11.065065010654882 21.60981594271548 10.994128553483078 0 -1 0
278 1 13.662262695806001 2.5676009175941084 10.835885963012087 0 0 0
407 1 17.941279315812277 1.313029273820293 12.186925138451885 0 0 0
404 1 16.368611874067867 21.582369170274536 11.100578278889772 0 -1 0
395 1 20.40809792578042 1.2064765665248545 9.674372353345671 0 0 0
406 1 19.23910063231839 2.779200151163759 10.827145695915922 0 0 0
20 1 0.1500271160015222 21.53149748005439 10.93232912664451 0 -1 0
13 1 1.365472364240168 3.983979834963462 9.49670916435105 0 0 0
52 1 0.11651971556558038 5.454882751607822 10.770891395579934 0 0 0
180 1 5.601293756255384 5.458086726416453 11.101647192948535 0 0 0
17 1 4.187552000816288 4.13557112774312 12.245388206850798 0 0 0
141 1 6.9896916204637165 4.029586301800876 9.605345012696272 0 0 0
308 1 10.828526622503693 5.4340220721410475 10.772021462067427 0 0 0
269 1 12.254951676359969 4.047876843837529 9.558091984403925 0 0 0
273 1 15.028572993396132 3.898427651907248 12.375098166701827 0 0 0
397 1 17.840782051583368 4.045203048740412 9.445778613666022 0 0 0
436 1 16.355265989756624 5.198719366018901 10.75376718017066 0 0 0
401 1 20.666608424217376 4.029065366818853 12.094060063332076 0 0 0
54 1 2.6168070676728545 8.194090576197235 10.805200139330292 0 0 0
55 1 1.3218862276300645 6.772482026848902 12.22870252252238 0 0 0
43 1 4.2953070466942895 6.845107356974821 9.67746690962786 0 0 0
182 1 8.253509135626077 8.260953699514129 10.768780774110613 0 0 0
183 1 6.826705287456673 6.973877456566409 12.174294921709182 0 0 0
171 1 9.479841933958005 6.9205922025737765 9.465994016982254 0 0 0
311 1 12.266007378029501 6.69782132685262 12.408247808435005 0 0 0
299 1 14.968027869365436 6.749914302956385 9.707450654915256 0 0 0
310 1 13.5307699100956 8.121534769224894 10.92571756275384 0 0 0
439 1 17.675257210443558 6.689101909260515 12.283730876754445 0 0 0
427 1 20.614507083514408 6.916483080552514 9.476277963364634 0 0 0
438 1 18.953158460505147 8.188519668857486 10.948399180241859 0 0 0
45 1 1.356705324851743 9.604592105081512 9.571540106972861 0 0 0
87 1 1.2400536632259338 12.33448819371155 12.43187284940345 0 0 0
212 1 5.179793431877634 11.016620123702412 10.641697524520515 0 0 0
75 1 3.912837047189893 12.469020979757193 9.523516411839415 0 0 0
49 1 3.8519507361327796 9.586723302774564 12.111471048399983 0 0 0
173 1 6.742626017041809 9.842671162792604 9.503871797894828 0 0 0
215 1 6.683948604890165 12.335961554160463 12.107930246378585 0 0 0
301 1 12.336688609054372 9.543373579133172 9.358231374237311 0 0 0
340 1 11.0765925992754 10.947906630134229 10.923022795598266 0 0 0
203 1 9.509694453761519 12.324693397904033 9.492837785309094 0 0 0
305 1 15.042433429772212 9.501145208920605 12.10362768967374 0 0 0
331 1 15.180475446025703 12.266974156420362 9.442040152535697 0 0 0
429 1 17.67218117010665 9.578973876700426 9.638944441820056 0 0 0
468 1 16.39169441899342 11.034085485832357 10.974739773668679 0 0 0
471 1 17.874010887777683 12.40148858139803 12.26263676885344 0 0 0
84 1 21.62242175913458 10.882184672745597 10.997737701598219 -1 0 0
459 1 20.413552302340012 12.167274430223951 9.429821975253702 0 0 0
433 1 20.25083451302583 9.447049526798082 12.344420011028838 0 0 0
77 1 1.1738355185563505 14.871146725633382 9.593687757106839 0 0 0
86 1 2.65794402147401 13.628356136981605 11.135432579833054 0 0 0
81 1 4.1705047667228925 15.11856812623267 12.373629020679392 0 0 0
205 1 6.843277404674518 14.999518637150953 9.512208846422784 0 0 0
214 1 8.129321678978378 13.553477923448208 10.811245120628076 0 0 0
333 1 12.381110680957981 15.024968651151381 9.651714611236796 0 0 0
209 1 9.352324808371879 14.919896969526771 12.39843473737883 0 0 0
342 1 13.729861682314615 13.43402997191489 10.900608694145903 0 0 0
337 1 15.013483349565421 14.937773205073357 12.274066451089121 0 0 0
461 1 17.93359690757464 15.058185830091972 9.568646776565961 0 0 0
470 1 19.170131439107962 13.645522665369121 10.851771831847062 0 0 0
465 1 20.42702138666852 15.214299832884905 12.190945377547207 0 0 0
119 1 1.3636141324121491 17.652201286559986 12.240830908308494 0 0 0
116 1 0.06220196073744049 16.510956667055925 10.803975402946023 0 0 0
107 1 4.204894560328345 17.527104107617863 9.540672384830215 0 0 0
244 1 5.737431765347035 16.42271731605743 10.943857631057396 0 0 0
247 1 6.93266074448461 17.870695266952627 12.331096807315049 0 0 0
235 1 9.491186728815165 17.791150880709534 9.490495088670555 0 0 0
372 1 10.741733501336617 16.324119540570628 11.047282548798448 0 0 0
375 1 12.068358479990874 17.642513259475034 12.35940078208466 0 0 0
363 1 14.952823330297077 17.66089900174757 9.583479685202489 0 0 0
500 1 16.29832512299897 16.3145505728398 10.859442792126687 0 0 0
503 1 17.65133269835679 17.833132632347976 12.150388276863167 0 0 0
491 1 20.519480745897567 17.624664444809593 9.39278303620477 0 0 0
109 1 1.4996386822647019 20.299248425107084 9.497920602592812 0 0 0
118 1 2.801456823914984 18.798174457148182 10.847960284280223 0 0 0
148 1 5.149168290164141 21.473204566203776 10.949745499574101 0 -1 0
113 1 3.986242546430395 20.162300478297514 12.369650425350306 0 0 0
237 1 6.643775848492405 20.358099150530588 9.651303525948652 0 0 0
246 1 8.250363297943846 19.219082220359564 10.85066373237508 0 0 0
241 1 9.486217918880708 20.62808282544744 12.394224403214794 0 0 0
365 1 12.465474625700688 20.29081730532405 9.495314089850535 0 0 0
374 1 13.700439714644588 19.074670724916466 10.960345540449062 0 0 0
369 1 15.067821377529016 20.286527862018477 12.501272896894983 0 0 0
493 1 17.674842426604588 20.386418221288316 9.682751121594345 0 0 0
502 1 19.08828725797965 19.04578421277747 10.776185333237413 0 0 0
497 1 20.52859434267237 20.310502895451265 12.280285022233446 0 0 0
19 1 3.8755912835068997 1.3561209565296046 14.908788763442413 0 0 0
146 1 5.469971700984271 2.592623223569029 13.604824757733878 0 0 0
147 1 9.38234093105109 1.4800076489422935 15.047890374488428 0 0 0
274 1 10.9218569856693 2.838487346614171 13.68708717571319 0 0 0
275 1 14.993855860967821 1.3750410804953452 14.866829177334301 0 0 0
402 1 16.524988928378605 2.582184113826419 13.50956873945929 0 0 0
18 1 0.19341529719178396 2.666234206961501 13.540973171912905 0 0 0
403 1 20.495599217121036 1.3908222431954889 14.9406250458631 0 0 0
408 1 19.184858140402536 21.768214535198272 13.591347777492828 0 -1 0
21 1 1.4655537668772713 3.999740983416047 15.003857661857523 0 0 0
56 1 2.6494496476402367 5.531171550668154 13.653653677965977 0 0 0
149 1 6.7184747595036916 4.396959693461357 14.780693431909814 0 0 0
184 1 8.22193312807571 5.53471884893083 13.52759186392279 0 0 0
145 1 9.48231706906959 4.107848735757687 12.2366392269296 0 0 0
277 1 12.006621247858478 4.358481595111201 14.891598859572358 0 0 0
312 1 13.654252483138299 5.208280929323777 13.595841156105699 0 0 0
405 1 17.8471934545782 4.114913572208053 14.901883606677652 0 0 0
440 1 19.318247087983654 5.421154513730317 13.58523216457949 0 0 0
50 1 0.10908807945232984 8.166243870418633 13.516803067776353 0 0 0
51 1 4.105679308282898 6.912423583052142 14.896189712862634 0 0 0
178 1 5.3551025610430045 8.417944527614987 13.43951949263969 0 0 0
177 1 9.586162978163399 9.665119981797123 12.21885527146684 0 0 0
179 1 9.34250984799902 6.892827696893241 15.030417328694691 0 0 0
306 1 10.774676084157134 8.279326596914009 13.640818105824438 0 0 0
307 1 15.075773565379913 6.740841438177411 14.84356299439428 0 0 0
434 1 16.305195242307178 8.155266979349687 13.49565307353962 0 0 0
435 1 20.47379864572022 6.815646759451316 14.951542689913033 0 0 0
53 1 1.371610923170949 9.400684651566646 14.975130529471542 0 0 0
88 1 2.580697002563212 10.94789800998742 13.587487700811796 0 0 0
83 1 3.8405559409210657 12.356000028310827 14.949096027594566 0 0 0
181 1 6.625829083038751 9.71522294627927 15.029033498963598 0 0 0
216 1 8.013356382390102 10.958561058283225 13.450354291753158 0 0 0
343 1 12.26045796849845 12.299293568660174 12.297831518578285 0 0 0
211 1 9.577478696623226 12.142197006076152 14.878892545908807 0 0 0
309 1 12.355457474706032 9.567941395064542 15.1063064783144 0 0 0
344 1 13.748220075200022 10.752195058165169 13.546451657461938 0 0 0
339 1 14.924175576591681 12.115102731439675 14.846221907015611 0 0 0
437 1 17.669116032443753 9.487910391784622 14.895879453442886 0 0 0
472 1 19.03005114123453 10.924988849403718 13.790412092455329 0 0 0
467 1 20.48126345636189 12.242893137383005 15.020647239687028 0 0 0
85 1 1.3871850959864536 14.999688925178866 14.952117321490872 0 0 0
210 1 5.337294695606917 13.72304813071306 13.610196680222765 0 0 0
213 1 6.729408038208613 14.949134777088958 15.0953342589498 0 0 0
338 1 10.7078539621881 13.639505665069496 13.6569127508744 0 0 0
341 1 12.179733638349346 14.978621126176993 14.89172317454938 0 0 0
466 1 16.43425687144458 13.701578790507154 13.576892701283388 0 0 0
469 1 17.739632925459123 15.187838202171413 15.058410323320127 0 0 0
82 1 21.710694595409183 13.7863981405342 13.566110352362296 -1 0 0
120 1 2.803065088309161 16.308571649979122 13.633274125960227 0 0 0
115 1 4.048939885678385 17.75908262919459 15.066251573086493 0 0 0
248 1 8.070680012743066 16.3453330888711 13.757464825196246 0 0 0
243 1 9.472330518057761 17.646561032311382 14.97966433065819 0 0 0
371 1 14.843435202273884 17.699456415162903 15.086399746095164 0 0 0
376 1 13.631289212240722 16.349906339278704 13.623315020682027 0 0 0
499 1 20.27452963565315 17.76229127103913 15.038194377605697 0 0 0
504 1 19.033476453039537 16.566582212940997 13.626529007569124 0 0 0
24 1 2.7183963690798074 21.56109140400621 13.609244126495826 0 -1 0
117 1 1.2719942504205777 20.295585761542167 15.042844032966384 0 0 0
114 1 21.76953689999768 18.957192707020276 13.671224301448857 -1 0 0
242 1 5.361981848642757 18.99814709584522 13.595306476664748 0 0 0
152 1 8.004029287688109 0.14870376827923365 13.80153348861505 0 0 0
245 1 6.667131220978717 20.600042940786313 15.076333392475856 0 0 0
370 1 10.95891638061549 19.11282031093148 13.68963504386775 0 0 0
373 1 12.266501952293586 20.37178459874923 15.04455989591012 0 0 0
280 1 13.501214590868221 21.735445374885767 13.645550708547322 0 -1 0
498 1 16.47985114249296 18.923297755334108 13.852986805922807 0 0 0
501 1 17.761517809731803 20.554496962833632 15.002302693064522 0 0 0
31 1 1.4510224785492818 1.211121826331101 17.82317101885789 0 0 0
30 1 2.763082484406634 2.8566280406874753 16.470296201307953 0 0 0
156 1 5.301308379472902 0.20344871135167866 16.28962504039331 0 0 0
158 1 8.134650092942048 3.0691461143704393 16.190675600899763 0 0 0
159 1 6.922362866986069 1.4690972187954925 17.60807015405278 0 0 0
287 1 12.09075581208897 1.516493895632641 17.638423251134046 0 0 0
286 1 13.395442462106281 2.750689739420144 16.15280056310207 0 0 0
415 1 17.633533720078802 1.4156098542062094 17.66024223205192 0 0 0
414 1 19.105858598908455 2.813862542284019 16.268174499782095 0 0 0
25 1 4.138571764389418 4.078100640084122 17.63940869412482 0 0 0
188 1 5.388393148448115 5.691025322953614 16.320844075623583 0 0 0
153 1 9.639298527515754 4.331990314727606 17.703795542064217 0 0 0
316 1 10.778663054490242 5.700447595116625 16.3868648861475 0 0 0
281 1 14.82135111665239 4.128811105284584 17.463434311483745 0 0 0
444 1 16.373414420561698 5.374437924421072 16.12663585546377 0 0 0
60 1 0.048933501130579975 5.391108325544546 16.148787878535725 0 0 0
409 1 20.63026911174457 4.107360803599757 17.669473532947865 0 0 0
62 1 2.6635915940476065 8.18147157168817 16.21696472234091 0 0 0
63 1 1.379103622507916 6.776739861392227 17.629965922609035 0 0 0
57 1 3.980632638824352 9.591437736028368 17.368144349028533 0 0 0
190 1 8.13184491088658 8.337077969006442 16.347276477458426 0 0 0
191 1 6.7959897057614915 6.903475460126138 17.721819300688097 0 0 0
319 1 12.285833296410908 6.8671053151735 17.70446953336472 0 0 0
318 1 13.764462540748033 8.112480557417415 16.34061817340826 0 0 0
447 1 17.581432669105418 6.6596609559007565 17.53122457011267 0 0 0
446 1 18.97159916076369 8.038785064107389 16.260744304675768 0 0 0
95 1 1.2237649022656594 12.146446894324404 17.65547388696309 0 0 0
220 1 5.2434290407477055 11.066152804195028 16.290187138721645 0 0 0
223 1 6.820149397552715 12.231234961373447 17.59901711006645 0 0 0
185 1 9.498011492336035 9.625782085046916 17.81696799323041 0 0 0
348 1 10.757038687342291 10.823170171657695 16.285825126197516 0 0 0
351 1 12.00755634171919 12.211789106285028 17.83696021694411 0 0 0
313 1 14.966856959946885 9.433643045447376 17.680019028495035 0 0 0
476 1 16.216381170555888 10.807350244343024 16.342391539594935 0 0 0
479 1 17.617777828943904 12.22769040642974 17.574621980123652 0 0 0
92 1 0.04916611102581611 10.872139749841635 16.20509519501351 0 0 0
441 1 20.53215633555168 9.607881663527566 17.653536958204164 0 0 0
94 1 2.537697685008952 13.71329368519966 16.283405041676495 0 0 0
89 1 4.061905338251456 15.067071860089875 17.73235985822899 0 0 0
222 1 8.287844973085546 13.589600732114137 16.235999548894323 0 0 0
217 1 9.785384496804113 15.042960368973935 17.51135189541443 0 0 0
345 1 14.73605284239159 14.864363865231558 17.822241433478872 0 0 0
350 1 13.384472668600143 13.430906327151213 16.374556260491048 0 0 0
478 1 18.953467843025262 13.630732228439346 16.294240631377853 0 0 0
473 1 20.37189534134327 14.906443300538252 17.724214184465794 0 0 0
127 1 1.3098668897673975 17.63033549820124 17.690287836074297 0 0 0
124 1 21.626859407611953 16.41375560190282 16.29718046741182 -1 0 0
252 1 5.631354552936051 16.380455291333508 16.287576334316523 0 0 0
255 1 6.842690803961156 17.762063435768077 17.831458835275143 0 0 0
380 1 11.066960787174274 16.51247431176328 16.106702297324432 0 0 0
383 1 12.228187604918213 17.674939464088908 17.72122646820342 0 0 0
508 1 16.141176204180937 16.108288357941827 16.44123438163685 0 0 0
511 1 17.716306364801266 17.37186429719397 17.776313720837695 0 0 0
126 1 2.607851408983573 19.017335616328612 16.369684401497206 0 0 0
121 1 4.012731793438846 20.540336776546134 17.76421117868071 0 0 0
254 1 8.022361656281918 19.02612545469247 16.264111584519046 0 0 0
249 1 9.243438671452026 20.388485931549308 17.64955852105113 0 0 0
284 1 10.679591779235949 21.65481392513524 16.331416383136066 0 -1 0
377 1 15.119428490618976 20.313307018362334 17.757051148476208 0 0 0
382 1 13.58054727663968 19.076319077900237 16.507751227926356 0 0 0
412 1 16.3771735993004 21.745877623004414 16.238034188188124 0 -1 0
28 1 0.006530811914502896 0.06518178331254276 16.301611933978926 0 0 0
510 1 18.894030561434867 18.840562983604098 16.361296103748494 0 0 0
505 1 20.296967933106174 20.313851859187448 17.70243433286351 0 0 0
2 1 21.75709609510562 0.08670536948379558 21.7350388207044 -1 0 -1
26 1 0.19729015235259684 2.6552644644023284 18.957555535944902 0 0 0
32 1 2.726877779810141 21.75298057993944 19.247231977619098 0 -1 0
27 1 4.2358328693307135 1.2475878113155605 20.375071229012924 0 0 0
154 1 5.670904981766638 2.728689721319013 19.08563023968034 0 0 0
160 1 7.978776732374518 21.763460389010586 19.015616888146283 0 -1 0