LAMMPS data file via write_data, version 10 Sep 2025, timestep = 10000000, units = metal

513 atoms
1 atom types

0 21.772397 xlo xhi
0 21.772397 ylo yhi
0 21.772397 zlo zhi

Masses

1 28.085

Atoms # atomic

7 1 1.3698400845243905 1.3551040770695308 1.0656686040191712 0 0 0
2 1 0.12410036357601228 2.690756811257923 2.6794002237318217 0 0 0
8 1 2.6997557063087023 0.09922484851107637 2.68112337882041 0 0 0
6 1 2.7690106711086395 2.764407597287568 21.71447384878332 0 0 -1
130 1 5.470267404323491 2.898148062473324 2.9484702605133535 0 0 0
135 1 6.603668485023495 1.325595852201154 1.433213696747193 0 0 0
134 1 8.399731851804573 2.8592668315139234 0.13259534089030162 0 0 0
136 1 8.152570549485809 21.76094910679527 2.6785422460059167 0 -1 0
258 1 10.892411009101659 2.6384813904902513 2.723346978784607 0 0 0
263 1 12.114273919197638 1.3430197033480606 1.2028754937449384 0 0 0
391 1 17.590260722668937 1.4104876394133758 1.2006651281527279 0 0 0
386 1 16.20090386335768 2.586054024769176 2.579510890149468 0 0 0
392 1 18.820897389393505 0.09019182143941493 2.5618013013434306 0 0 0
40 1 2.937426759662359 5.424345731126143 2.7967984325486817 0 0 0
36 1 0.009809536816837675 5.540853824742548 0.23849725159759672 0 0 0
1 1 4.176167345497078 4.048580970093347 1.2965987013815725 0 0 0
164 1 5.675055084125763 5.299189879023964 21.75897450895298 0 0 -1
168 1 8.079527692324653 5.385432825042224 2.926739492692832 0 0 0
129 1 9.670149437734624 4.1846606321647055 1.5202272887464339 0 0 0
257 1 14.987116545534688 4.1276130198242535 1.3336310562165752 0 0 0
296 1 13.512874500476041 5.462540298209191 2.659506331137632 0 0 0
385 1 20.532819533123536 4.090189154034766 1.495504078528483 0 0 0
424 1 19.127413991613373 5.575795357432939 2.8291170456758303 0 0 0
39 1 1.386688984306441 6.873705243355835 1.6875486317790998 0 0 0
34 1 21.747533642106823 8.21472153441625 2.8468555663019033 -1 0 0
38 1 2.6813532994370766 8.10884673344865 0.18871971172028879 0 0 0
162 1 5.563600372144763 8.20931461281878 2.843268166055364 0 0 0
167 1 6.8729469114416135 6.8065245699549966 1.4513812995906104 0 0 0
166 1 8.283082685518547 8.106613007282176 0.002280338239614821 0 0 0
290 1 10.61089482311384 8.199917934552307 2.861552901016563 0 0 0
295 1 12.096011712259353 6.926204006284005 1.502223190906666 0 0 0
294 1 13.541619550649433 8.190081501249308 21.761744054931775 0 0 -1
418 1 16.46201817408335 8.235520902636958 2.895743510493533 0 0 0
423 1 17.712187033373418 6.825645449616382 1.425212860390672 0 0 0
72 1 2.845723855374248 10.869233941777484 2.6587558207662054 0 0 0
71 1 1.3510769576630306 12.429042507558439 1.425659684268292 0 0 0
33 1 4.167761966421322 9.354830222017513 1.3835700263847364 0 0 0
196 1 5.602527249114903 10.937251197371955 21.706971548394947 0 0 -1
200 1 8.097639226455826 11.002658155864024 2.8507321878063925 0 0 0
199 1 6.793002653620863 12.319221371434116 1.2672734583693528 0 0 0
161 1 9.412340413163903 9.551624218545623 1.4580016961524647 0 0 0
327 1 12.140044547963418 12.156454922885395 1.3594895160296991 0 0 0
289 1 15.077882369039086 9.495364657009153 1.4780570162439526 0 0 0
328 1 13.501339511691963 10.81479076009489 2.604949431978982 0 0 0
452 1 16.492703142985157 10.888331378763484 0.08617007810667587 0 0 0
455 1 17.853928954533416 12.400932457341844 1.350842773300834 0 0 0
417 1 20.46671339233333 9.524472503229402 1.4187233845259464 0 0 0
456 1 19.192648392049772 11.091192797803416 2.798627642432057 0 0 0
66 1 0.027774803498264472 13.619908121534776 2.8475923962073204 0 0 0
65 1 4.238547732683231 15.04222890852799 1.3920624957120091 0 0 0
194 1 5.379295942560004 13.544370485300744 2.6398648789181323 0 0 0
193 1 9.540566938808729 14.905441148063804 1.3015369701751067 0 0 0
322 1 10.859045301236762 13.504929604002413 2.7058703403410784 0 0 0
321 1 14.751559022019544 15.118995863089062 1.127328357877466 0 0 0
450 1 16.24061474643601 13.624432748074474 2.60965425340095 0 0 0
449 1 20.449128613231075 14.889450481298908 1.3990132085606748 0 0 0
454 1 19.1377836877072 13.742928080780544 21.623853948368243 0 0 -1
103 1 1.3383350714150137 17.652473050638147 1.2023340535683662 0 0 0
104 1 2.7947272705843864 16.4092681967295 2.6140573601660444 0 0 0
228 1 5.5892059530796825 16.58065545029687 21.732299391578394 0 0 -1
231 1 6.965506592090757 17.800987178889095 1.3525498267345897 0 0 0
232 1 8.15353416513859 16.259023436833132 2.5256857810818203 0 0 0
356 1 11.039280472644096 16.171892293687065 21.532171628332346 0 0 -1
359 1 12.11254987729942 17.680620239970857 1.1711337008300717 0 0 0
360 1 13.600746482325034 16.364604434197968 2.7200953776687626 0 0 0
487 1 17.575214835237745 17.688913443800555 1.2907086831697219 0 0 0
488 1 19.019798162577818 16.270834523519017 2.6663118889592243 0 0 0
98 1 0.035539020549286364 19.01778820234491 2.506931616980982 0 0 0
102 1 2.9862687031974358 19.011406150376473 21.73436452203891 0 0 -1
132 1 5.382897395167143 21.615396033231658 21.619999248718653 0 -1 -1
97 1 4.091105614154133 20.399025103305387 1.2584264091323678 0 0 0
226 1 5.497741413560545 19.03098001665271 2.5845198686521136 0 0 0
225 1 9.553172323813882 20.47382285082998 1.2412891959362424 0 0 0
354 1 10.867141984562364 19.012245170409365 2.552190336280237 0 0 0
264 1 13.43639407527547 21.664878026232902 2.557696885746832 0 -1 0
353 1 14.784235082781002 20.35555071790297 1.3159066357317868 0 0 0
482 1 16.1091996823663 18.900067483130734 2.5895161824928836 0 0 0
481 1 20.2236354254516 20.635011041279693 1.1824928835000834 0 0 0
3 1 2.8132048457249916 2.5373481407614804 5.350675627554297 0 0 0
513 1 4.1950087353065655 1.3334074600471528 4.102058652629408 0 0 0
142 1 8.311975633320394 2.743869135990954 5.642023895893509 0 0 0
131 1 9.532739809539692 1.4817361861257108 4.1295612936374235 0 0 0
259 1 14.845617166213268 1.2745598363403183 3.8938820667529237 0 0 0
270 1 13.450745938590893 2.6918529630698966 5.337903826128718 0 0 0
396 1 16.316157607960438 0.07636310002008173 5.112444465491572 0 0 0
387 1 20.295546896863666 1.4933045209366043 3.8897734005284588 0 0 0
398 1 19.050119941045843 2.8348145118712185 5.2105931241259 0 0 0
5 1 1.6444148734748694 3.9757986847302926 4.014577716207172 0 0 0
172 1 5.485458192673265 5.049569236665572 5.717555533784448 0 0 0
133 1 6.88469490617294 3.972576950042707 4.318886342539992 0 0 0
300 1 10.682717140719904 5.227217143666344 5.331328655005789 0 0 0
261 1 12.224898782123718 4.1297018647301895 4.083664783697333 0 0 0
389 1 17.693368888400382 4.079635525582877 3.9010961479234383 0 0 0
428 1 16.268459565081674 5.490139720893221 5.263477265412692 0 0 0
44 1 0.13434841672151876 5.370213700119698 5.286722413667101 0 0 0
46 1 2.83661083533907 8.10618677982975 5.584757343172588 0 0 0
35 1 4.308285553241321 6.557315370183499 4.249008838745231 0 0 0
174 1 8.004649392753562 7.905990417983356 5.624279151290132 0 0 0
163 1 9.465009039685087 6.771833404047801 4.229942703854911 0 0 0
291 1 14.901504913132978 6.930514676091542 4.024307149391851 0 0 0
302 1 13.42962833576693 8.144998872183049 5.568570990898006 0 0 0
425 1 18.947443583928287 8.04409595304027 5.489091446215005 0 0 0
419 1 20.519897469239943 6.781298695093281 4.178476834854046 0 0 0
37 1 1.5401171694630509 9.516864272688851 4.057427443961665 0 0 0
47 1 0.10096574620944707 10.899908474121252 5.296303103880961 0 0 0
204 1 5.501523115137762 10.888707678483364 5.63339009793576 0 0 0
67 1 4.097007392895134 12.112892871308237 4.263017132525562 0 0 0
165 1 6.876508096449122 9.43622515495906 4.261064199396343 0 0 0
293 1 12.127670505766298 9.47550613606866 4.139213162800004 0 0 0
195 1 9.679059440952015 12.185707525653473 4.117147138482421 0 0 0
332 1 10.933313762690014 10.849649310013309 5.661510474799503 0 0 0
421 1 17.83307121532106 9.65381528986397 4.1899302160339085 0 0 0
460 1 16.303373599292584 11.02878843508357 5.466152003023922 0 0 0
69 1 1.4680619157130368 15.13337950557614 4.2947364219717 0 0 0
78 1 2.6669420270352635 13.634531241584803 5.50458940862521 0 0 0
197 1 6.848560606429579 14.908319168269449 3.9583038012748655 0 0 0
206 1 8.233403800129762 13.60685703890804 5.205975892724689 0 0 0
323 1 14.91613878068194 12.234619810830157 4.008366943957795 0 0 0
325 1 12.109429174347175 15.05442049063154 3.8565092939311665 0 0 0
334 1 13.512663770531546 13.668500809085362 5.3221278718953355 0 0 0
453 1 17.56913425442479 15.127193644494158 4.068581239353595 0 0 0
76 1 20.46579278898706 12.402167945108822 4.19423116271938 -1 0 0
462 1 18.951837015484987 13.69996692672021 5.367304294063085 0 0 0
108 1 21.661027216989034 16.50642886706074 5.543915194269217 -1 0 0
99 1 4.086582312733479 17.702739739752378 3.8260247374067213 0 0 0
236 1 5.433570835858937 16.223438152638835 5.218152778897121 0 0 0
227 1 9.570149998876404 17.614164609582662 3.837592735056012 0 0 0
364 1 10.744486573037557 16.369599075253106 5.296664398924178 0 0 0
355 1 14.81885918389764 17.666362813270382 4.060121720457056 0 0 0
492 1 16.176129103000328 16.471386237097434 5.491948956376538 0 0 0
483 1 20.42437995020013 17.868002174691505 3.902742374675596 0 0 0
110 1 2.9438284958721432 19.19343079958235 5.222108905152059 0 0 0
101 1 1.3559911351077734 20.448534032447746 3.9698319545285266 0 0 0
140 1 5.554667606174161 21.656760540691867 5.568061585700047 0 -1 0
229 1 6.745104302576514 20.43042380347841 3.8720273950110258 0 0 0
238 1 8.082370965696539 19.0691911924508 5.309795153063444 0 0 0
268 1 10.781522843191448 21.758683846876306 5.2147713113965795 0 -1 0
357 1 12.194245680396683 20.384082699723997 3.971827842677152 0 0 0
366 1 13.603717390813417 18.94984429679878 5.4460719189799836 0 0 0
485 1 17.51324969683651 20.313082657396084 3.8874429132998816 0 0 0
12 1 21.655364853449708 0.006295683119112994 5.219950538284101 -1 0 0
494 1 19.035794912901252 19.07132729294985 5.423800699474403 0 0 0
15 1 1.3802636235197436 1.1314189003681447 6.696133116582001 0 0 0
16 1 2.7634234119028998 21.722299524746244 8.329459741023719 0 -1 0
138 1 5.537231663384192 2.522136302856438 8.139538700269144 0 0 0
143 1 7.0721634741914565 1.073564506070765 6.866645105815621 0 0 0
266 1 10.823659312380046 2.44796035067228 8.133777785813807 0 0 0
271 1 12.248263399135482 1.2544226939655974 6.637573243810962 0 0 0
272 1 13.70459289566713 21.736784861042064 7.906970221207843 0 -1 0
394 1 16.390715986127653 2.6085473664540513 8.266036132534177 0 0 0
399 1 17.787093648582886 1.4911752706108208 6.497744473541355 0 0 0
10 1 8.055202105973643e-05 2.6258355714562964 8.029394769126325 0 0 0
400 1 18.95668408421983 21.753752626203912 7.751355845116135 0 -1 0
48 1 2.8179376507566234 5.183992610662173 8.26512228864357 0 0 0
9 1 4.1583505876677656 3.9285250886957703 6.927063415847057 0 0 0
176 1 8.178509198725765 5.375998080099269 8.238327552313423 0 0 0
137 1 9.47410066032678 4.03769918458919 7.071200980120297 0 0 0
265 1 15.073808100637633 4.081208026678252 6.729259587720434 0 0 0
304 1 13.534683899472693 5.233460201380557 7.979520467354519 0 0 0
397 1 17.64802481330872 4.111702896881757 9.51048945916619 0 0 0
432 1 18.983865133766358 5.426259495879847 7.930230672538768 0 0 0
393 1 20.42075484241455 4.105227664100009 6.597763711991195 0 0 0
14 1 1.3430886658159389 6.625254207838065 6.850507167496327 0 0 0
170 1 5.366970423675974 8.08726981315098 8.265889136551131 0 0 0
175 1 6.668793227382537 6.626016345091271 6.948590347586946 0 0 0
298 1 10.920930453253316 8.10448666438822 8.183515516204336 0 0 0
303 1 12.036294708631624 6.608127795580125 6.669790331572026 0 0 0
426 1 15.108204825205407 7.250598056850919 7.93306006949854 0 0 0
431 1 17.46600276933585 6.727132194065138 6.834216754301728 0 0 0
463 1 17.41460090567587 9.310672981627723 7.752795429611681 0 0 0
42 1 21.760893533500816 8.10589108901813 8.335194425007769 -1 0 0
80 1 2.684130414791188 10.98290923346256 8.247908538281688 0 0 0
79 1 1.3011502431637014 12.258785221189024 6.854316462155162 0 0 0
41 1 4.084186290116216 9.47461045712747 7.058370109361998 0 0 0
208 1 8.25187802496014 10.752283187913084 8.076053088833335 0 0 0
207 1 7.022523605782775 12.276198056232241 6.800500410928134 0 0 0
169 1 9.54440079269133 9.246024696435894 6.757550738632025 0 0 0
335 1 12.31121004633344 12.376616435267428 6.827158046427542 0 0 0
297 1 14.98751944983648 9.652789082093948 6.980305889548673 0 0 0
336 1 13.706805919369362 10.979943263476853 8.139956599586501 0 0 0
451 1 17.748366905896173 12.36803338813231 6.690261119460643 0 0 0
430 1 20.650355305014408 9.486974433945257 6.712216659497668 0 0 0
464 1 19.09952820721331 10.868968364148941 7.649337981244763 0 0 0
73 1 4.003861428036853 15.047283278153627 6.900812422599059 0 0 0
202 1 5.61613556349391 13.652932375076453 8.319394759501497 0 0 0
201 1 9.617583518557518 14.887080687871444 6.6724675451160635 0 0 0
330 1 10.976460183338746 13.531212640683043 8.205961554237179 0 0 0
329 1 14.929842546879419 15.025526208906358 6.9111020824827305 0 0 0
458 1 16.336645177793788 13.572601026872858 8.148143684671256 0 0 0
74 1 21.63669958797295 13.677905963192346 8.110106049364445 -1 0 0
457 1 20.288523976308216 14.993716052497716 6.796406284069593 0 0 0
111 1 1.2808220673942667 17.936323145553416 6.689127821605528 0 0 0
112 1 2.799952352654326 16.692751765339814 7.942898086430055 0 0 0
239 1 6.697680716776148 17.540575973200536 6.680503641607318 0 0 0
240 1 8.287576295481339 16.28852562845468 7.9685605751330835 0 0 0
367 1 12.332840581084072 17.503017000023686 6.67512747919961 0 0 0
368 1 13.657355578178011 16.418263024754143 8.221637742498235 0 0 0
495 1 17.69898597177706 17.755481069370155 6.790341214092424 0 0 0
496 1 19.000743228606673 16.276734208165017 8.03976567082041 0 0 0
105 1 4.144001962362225 20.259315296961965 6.913044378457327 0 0 0
234 1 5.626593407092301 18.889788514628755 8.117519710290033 0 0 0
144 1 8.43284971542361 21.472127637964633 8.424589659958443 0 -1 0
233 1 9.68543137415946 20.38265322531295 6.88865535426866 0 0 0
362 1 11.056040507823429 19.02175973554707 8.147862579976525 0 0 0
361 1 15.055946977653747 20.42505333260743 6.615468987920343 0 0 0
490 1 16.340531795148145 19.167741983194784 8.023393253964905 0 0 0
106 1 21.673123452786303 19.20505291136096 8.302829428098923 -1 0 0
489 1 20.510083504464795 20.32161476240584 6.605281256701761 0 0 0
22 1 2.814111519451641 2.5091636791779366 10.973044915585586 0 0 0
23 1 1.227206276917097 1.5253010161871798 12.278704484543491 0 0 0
11 1 4.32224414278381 1.0451713606861581 9.620021748029187 0 0 0
150 1 8.153449812831104 2.544460346478178 10.881053125645256 0 0 0
151 1 6.706052483822859 1.371067137536118 12.285139349923282 0 0 0
139 1 9.654769120604806 1.1606707842981552 9.702324101714662 0 0 0
276 1 10.912348798710275 21.629362289243396 10.936340892563097 0 -1 0
267 1 14.976895143243336 1.1778473987248481 9.640465110175342 0 0 0
278 1 13.751367141280092 2.715843402525876 10.864770883585868 0 0 0
407 1 17.79259905384246 1.523199737653674 12.223091581872533 0 0 0
395 1 20.406164082693746 1.25065328932675 9.325928483796167 0 0 0
406 1 19.147541403915277 2.9047087444367063 10.869897628611984 0 0 0
13 1 1.5137077325088317 3.776379886766386 9.512411589105891 0 0 0
180 1 5.594427675542718 5.4307354798714496 10.881265677484226 0 0 0
17 1 4.0789471763747 4.04768538503873 12.098392156822488 0 0 0
141 1 6.897316167992879 3.8896202904866626 9.535528811238821 0 0 0
308 1 10.856724590509769 5.619732910493621 10.857848082071934 0 0 0
269 1 12.2185547542014 4.065208507075202 9.506483055314842 0 0 0
273 1 14.979493569353034 4.279418497255449 12.110545010979687 0 0 0
436 1 16.570968234163104 5.479469476154924 11.105877899871379 0 0 0
52 1 0.06656429314004342 5.293828219184164 10.782451043752832 0 0 0
401 1 20.455914198015837 4.290123634526235 12.478382283325688 0 0 0
54 1 3.0048386594680596 8.011999542670459 10.747254032470796 0 0 0
55 1 1.3434217850109054 6.708111405224371 12.035710829408663 0 0 0
43 1 4.212041262330193 6.607246254596424 9.567500293437192 0 0 0
182 1 8.263846736388887 8.125754122208516 10.926452263532358 0 0 0
183 1 6.913872698260314 6.779091471270187 12.351558842391125 0 0 0
171 1 9.536041934362988 6.938234768647661 9.512751014260667 0 0 0
311 1 12.010366872806829 6.853623196131141 12.313416940007604 0 0 0
310 1 13.508976589581282 8.155819494148618 10.88188275262122 0 0 0
299 1 15.69661981835975 7.4129589268849445 10.064402410318836 0 0 0
305 1 14.824199053732682 9.460780449723627 12.202788973593687 0 0 0
429 1 17.365274599515782 9.057869966720192 10.012353094792529 0 0 0
427 1 20.32926993054678 6.763017054576399 9.52725999228905 0 0 0
438 1 19.100244057120324 8.054351346033709 11.034832306038338 0 0 0
45 1 1.4535364422705588 9.478203419908203 9.587860992172512 0 0 0
87 1 1.2983832808260234 12.130433043301126 12.34140618508001 0 0 0
75 1 3.9803798064066513 12.41993445066665 9.38837385752094 0 0 0
212 1 5.511580046161833 10.955669098719472 10.790510159558497 0 0 0
49 1 4.238374731056156 9.447705477253399 12.048833453817045 0 0 0
173 1 6.866099833284779 9.49573938541795 9.657881021561902 0 0 0
215 1 6.992865941815287 12.16284911158545 12.055210095330303 0 0 0
177 1 9.578922543549407 9.687990135843556 12.187546476424643 0 0 0
301 1 12.294013276510038 9.677731261787367 9.396117230008496 0 0 0
340 1 11.051654451368345 10.910126727719211 10.96342425045135 0 0 0
343 1 12.25466791320085 12.234054989855748 12.582684263411199 0 0 0
203 1 9.654296069976356 12.116888502980451 9.532285449387972 0 0 0
331 1 14.906341393350017 12.271388652883925 9.636274002725134 0 0 0
468 1 16.32187792105889 10.89582592935997 10.89282686638431 0 0 0
471 1 17.75960935947837 12.058921211272686 12.254160497043168 0 0 0
84 1 0.06375223830383828 10.85118147996269 10.902253663921234 0 0 0
459 1 20.282191576583042 12.320451803423389 9.434797902958522 0 0 0
433 1 20.47373833794165 9.439421246376734 12.344667770411286 0 0 0
77 1 1.3956650943126172 15.230564386809164 9.527305463473338 0 0 0
86 1 2.515139619530782 13.576541812039848 10.776162933734318 0 0 0
81 1 4.092770411233086 14.810859720854664 12.09711185412682 0 0 0
205 1 7.0036769494453095 14.992151802531508 9.529041636885948 0 0 0
214 1 8.54234160648637 13.660540207963367 10.907857603492005 0 0 0
209 1 9.795196826155316 15.072672824715946 12.329894529828605 0 0 0
333 1 12.356535289735973 15.056705225652184 9.490609992777095 0 0 0
342 1 13.599001058859393 13.56021781786345 10.882940060264861 0 0 0
337 1 15.139229559350454 14.735504269566386 12.114861412134644 0 0 0
461 1 17.677841218117994 14.996196132342156 9.490337928134997 0 0 0
470 1 18.928114299301193 13.56581028977455 10.84534220902701 0 0 0
465 1 20.252820683052335 14.86410259883618 12.430015784658433 0 0 0
119 1 1.2982775299655025 17.525807713604244 12.172846036162227 0 0 0
116 1 21.636076712411114 16.279609890595083 11.031622528718602 -1 0 0
107 1 4.175565461132343 17.774880003456794 9.541566424257637 0 0 0
244 1 5.454359316616928 16.24719669255845 10.779106084354062 0 0 0
247 1 6.746083054152311 17.495248439634317 12.317904591164698 0 0 0
235 1 9.657639487086678 17.616217154960204 9.428875155465516 0 0 0
372 1 11.014826352123967 16.398262464619627 10.829425317813536 0 0 0
375 1 12.380613424523812 17.787406044663935 12.373445329356617 0 0 0
363 1 15.105421902217914 17.737154071750016 9.501697981217427 0 0 0
500 1 16.484044541825384 16.30393178897469 10.908076973785748 0 0 0
503 1 18.00718097550025 17.869379017879325 12.164820501818747 0 0 0
491 1 20.28637250403603 17.592347083328328 9.516964040662257 0 0 0
20 1 21.699139463713514 0.26738726529607604 10.896239884254154 -1 0 0
109 1 1.296941158352576 20.529053265817293 9.65557908590516 0 0 0
118 1 2.568507270688459 19.110065245733978 10.821089921495865 0 0 0
148 1 5.602418690950561 21.67171085193926 10.998479976473323 0 -1 0
113 1 4.086526144600729 20.367208722524268 12.128549963391272 0 0 0
237 1 6.884220059020459 20.26016101371425 9.563336168136768 0 0 0
246 1 8.173900520765566 18.781875861049066 10.808729606070754 0 0 0
365 1 12.336027993513401 20.569953084675742 9.38355832729254 0 0 0
241 1 9.59689077005751 20.118301987857485 12.13604178292567 0 0 0
374 1 13.723738681691827 19.068576199870904 10.883988356713862 0 0 0
369 1 15.073338324658154 20.450798563764156 12.192310276183328 0 0 0
404 1 16.516331026463064 21.693681552164243 10.93888738823994 0 -1 0
493 1 17.64473052603259 20.60597350534159 9.10176181034039 0 0 0
502 1 19.087897005312648 19.37103147413377 10.46437357848782 0 0 0
497 1 20.35134232600692 20.563991898728478 12.095537256506915 0 0 0
18 1 21.687319423293264 2.716983910027445 13.8128991244763 -1 0 0
24 1 2.733321078560727 21.766953534993256 13.56402647359371 0 -1 0
19 1 4.093502823350296 1.3037509736544253 14.890928262157393 0 0 0
146 1 5.454800477856939 2.812868387545543 13.549726915627177 0 0 0
152 1 8.19628854401859 21.636312162219838 13.619300639020398 0 -1 0
279 1 12.303179172815037 1.164234102825323 12.160725592479483 0 0 0
147 1 9.666964846708108 1.3927028020032275 14.987179807347637 0 0 0
274 1 10.98790282819678 2.684616786716926 13.524509861665072 0 0 0
275 1 15.01899318692885 1.4414837754126015 15.102749052279936 0 0 0
402 1 16.314696454510777 2.944319583887846 13.614938962707132 0 0 0
403 1 20.24621313291205 1.2941214745700373 15.265107975767954 0 0 0
21 1 1.2703341334853084 4.194926760953208 14.918146647446706 0 0 0
56 1 2.7227962538366492 5.446897718529913 13.52473282671449 0 0 0
149 1 6.806659959433869 4.259642560648866 15.04205873022366 0 0 0
184 1 8.263231410767688 5.4114389833049525 13.652581164417624 0 0 0
145 1 9.518810878928715 4.077912927954751 12.159272708216388 0 0 0
277 1 12.240663815006744 4.061144873432963 14.806896391205434 0 0 0
312 1 13.580658787033089 5.531365150801294 13.468004809630278 0 0 0
405 1 17.553905252600813 4.32310494986464 14.984732289274051 0 0 0
440 1 19.154975114646355 5.553761263968723 13.85870390788586 0 0 0
51 1 4.224119306473752 6.689696312760439 14.934340676515635 0 0 0
178 1 5.633198627762125 8.142015976885348 13.703851815664118 0 0 0
179 1 9.70458336144216 6.61200730730913 14.965138226188262 0 0 0
306 1 10.77878323321697 8.222011805474613 13.685557246601524 0 0 0
307 1 14.906025835163376 6.845817892719685 14.853303910296331 0 0 0
439 1 17.80772236701853 6.917994584032002 12.451483137401933 0 0 0
434 1 16.26472597057343 8.04889877651091 13.649597275936115 0 0 0
50 1 0.004760922634226006 8.033235960122289 13.733130122921073 0 0 0
435 1 20.36857717295462 6.953518015834953 15.208122593365019 0 0 0
53 1 1.5633603508077343 9.359516995328706 15.038608299237081 0 0 0
88 1 2.88119672098504 10.90121069048825 13.523422621458993 0 0 0
83 1 4.175866079184839 12.2862124643781 14.86957303279473 0 0 0
181 1 6.977078481149701 9.401295657635714 15.167559415710409 0 0 0
216 1 8.146172292290592 10.756065503298746 13.601251919714066 0 0 0
309 1 12.267735857517676 9.475127246888007 15.098269484198864 0 0 0
211 1 9.404239365261125 12.382810042526092 15.033136004721563 0 0 0
344 1 13.548441001865807 10.817044639577915 13.777015979640474 0 0 0
339 1 14.901741991862973 12.15729308034086 15.005722323331165 0 0 0
437 1 17.531137724574478 9.445429832233543 15.147735170231373 0 0 0
472 1 18.959046473091195 10.724496469117238 13.740256168508969 0 0 0
467 1 20.28455167345847 12.189047714939763 15.16653136749387 0 0 0
85 1 1.4320090027289343 14.80661028824523 14.973134302713904 0 0 0
210 1 5.700576339113775 13.50297905696608 13.573114624735677 0 0 0
213 1 6.941344839348614 14.770493018285098 15.129717145000338 0 0 0
338 1 10.86417912178697 13.667950627202632 13.79368993590068 0 0 0
341 1 12.272610418532803 15.091931300872403 14.959295908140275 0 0 0
466 1 16.22735341920443 13.281615501158202 13.524206465111014 0 0 0
469 1 17.619483715010194 14.792752580602258 14.88513021799473 0 0 0
82 1 21.75681210116221 13.593971565071882 13.699228944333703 -1 0 0
120 1 2.5719862776746867 16.073902113320308 13.481691851019717 0 0 0
115 1 4.00552704364825 17.504610385035885 14.802786552401288 0 0 0
248 1 8.308289069402306 16.181545146623442 13.608976658745608 0 0 0
243 1 9.442556464629691 17.6137849355419 15.112649973188649 0 0 0
371 1 15.064254406925231 17.811504065927807 14.890972326422906 0 0 0
376 1 13.837139304195139 16.3311210066957 13.479876233510831 0 0 0
504 1 19.030001106598892 16.3847290956166 13.806009699015883 0 0 0
499 1 20.48625908320687 17.701379848846468 14.982006138052776 0 0 0
117 1 1.3881017359033212 20.45554161719007 15.003438913108807 0 0 0
242 1 5.430069258852066 19.036628537349028 13.514686971717982 0 0 0
245 1 6.728427167615383 20.208451716743415 15.129128337316763 0 0 0
370 1 10.84681864748385 18.944165066549065 13.746397291516745 0 0 0
373 1 12.339225448289866 20.458175577737432 14.960235335875398 0 0 0
280 1 13.674813078399485 0.026453700044098562 13.53841054491575 0 0 0
498 1 16.493984441041402 19.11115141066906 13.558104128817716 0 0 0
501 1 17.799820800310027 20.431010348308057 15.024522314341734 0 0 0
408 1 19.03411872629706 0.14963636607766165 13.55145456211295 0 0 0
114 1 0.10265656922142696 19.00634917144815 13.542612284347332 0 0 0
30 1 2.6558879138218243 2.842510995910716 16.217761388925066 0 0 0
31 1 1.2443828532280627 1.4912022079050014 17.65826038977021 0 0 0
158 1 8.158881085502285 2.803564657185625 16.358741756409458 0 0 0
159 1 6.677385453200677 1.437199740119559 17.492245948353133 0 0 0
287 1 12.223826855843384 1.159321381591726 17.757772560697116 0 0 0
286 1 13.42250859453176 2.4759530398564475 16.31296139677713 0 0 0
415 1 17.53916583053506 1.3937582890015523 17.51869536085626 0 0 0
414 1 18.97706174152448 2.864979669527622 16.354542238030945 0 0 0
60 1 0.0811225157681446 5.656650871748133 16.43108430019588 0 0 0
25 1 3.928328683689178 4.074351781739243 17.731897724200973 0 0 0
188 1 5.451217314218424 5.381495947226574 16.442512760639275 0 0 0
153 1 9.605188351609529 4.218078951379575 17.708705040238694 0 0 0
316 1 11.017300658109745 5.31056674586304 16.321031489079147 0 0 0
281 1 14.74604380543361 3.952766204877564 17.64710996914855 0 0 0
444 1 16.13920058268125 5.394663793453775 16.341160339245146 0 0 0
409 1 20.564423363978886 4.149330222973447 17.635436558124916 0 0 0
63 1 1.4768381957720353 6.985022341248429 17.773035317146096 0 0 0
62 1 2.912564352773854 8.013223024502805 16.258961851493343 0 0 0
190 1 8.337747700852484 7.975037846091624 16.416935444998323 0 0 0
191 1 6.8255119115619 6.715265338180159 17.8277330989486 0 0 0
319 1 12.177328923061598 6.876025449914972 17.713462876722982 0 0 0
318 1 13.648808957246258 8.069756805529682 16.398719512659383 0 0 0
313 1 14.873806477709104 9.54490964951606 17.89905193629915 0 0 0
447 1 17.775731815673545 6.795523481199246 17.81833084221895 0 0 0
446 1 18.99299348249956 8.3696271835094 16.507763653159497 0 0 0
95 1 1.262167622322692 12.264609584489389 17.530871347345787 0 0 0
57 1 4.2423173670676295 9.285850559398133 17.888262634994284 0 0 0
220 1 5.5270238541687835 10.84829698843396 16.187529129328542 0 0 0
223 1 6.8955379023090275 12.144471050268775 17.626893219106968 0 0 0
185 1 9.543768905213721 9.494357113440909 17.641311010836144 0 0 0
348 1 10.727272067178962 10.97566816693201 16.38845569905879 0 0 0
351 1 12.286069657445877 12.35994526770493 17.66228718634086 0 0 0
476 1 16.352221322289417 10.989388282085894 16.436896371073324 0 0 0
479 1 17.86308562873234 12.349402570846804 17.933629990888267 0 0 0
92 1 21.759431703159038 10.746900588861049 16.337907280161403 -1 0 0
441 1 20.42606907223989 9.543148289886181 17.87955525514683 0 0 0
94 1 2.7794389153461556 13.54955855559672 16.22348265806697 0 0 0
89 1 4.224083122483192 14.839528569164061 17.625353587881275 0 0 0
222 1 8.233158615377892 13.624575312745558 16.683816563247717 0 0 0
217 1 9.521042483918865 15.0906021950117 17.776361158514998 0 0 0
345 1 15.078805555455238 15.10748589107804 17.630919482164273 0 0 0
350 1 13.719721605422501 13.655209009575719 16.358167597903037 0 0 0
473 1 20.593958902818855 15.066923771662374 17.668792376608117 0 0 0
478 1 19.04174193106625 13.679054669296432 16.47265159627706 0 0 0
127 1 1.4792278390529399 17.70136561779265 17.722056324953755 0 0 0
124 1 0.11445958110782099 16.290656465992306 16.263412858106534 0 0 0
252 1 5.473066851859738 16.34427163975115 16.216360207669354 0 0 0
255 1 6.762221997274065 17.41238114529292 17.77650845689946 0 0 0
380 1 10.869035912971794 16.46033937393299 16.49446029235448 0 0 0
383 1 12.412521995841342 17.78486876071472 17.595356441281957 0 0 0
508 1 16.472769408526855 16.339857585536326 16.211559215258053 0 0 0
511 1 17.93621319339227 17.696418232625383 17.607683039830683 0 0 0
28 1 21.748824033563043 0.030940953410006244 16.304362072912237 -1 0 0
126 1 2.696671131352882 18.98534796309812 16.278350438516256 0 0 0
156 1 5.386688470202321 0.014643259462292946 16.28203064307354 0 0 0
121 1 4.035959843015857 20.29552415692766 17.646749876969217 0 0 0
254 1 8.036573199029545 18.895953899813367 16.5714717238254 0 0 0
249 1 9.342332957894078 20.461792198161092 17.610541472370375 0 0 0
284 1 10.979497003963546 21.620569990573067 16.277789864652622 0 -1 0
382 1 13.676187985465683 18.957879504422095 16.263377654351817 0 0 0
377 1 15.120057916440725 20.23633860088138 17.44146979750877 0 0 0
412 1 16.355009749543992 21.6914790571776 16.16975547758224 0 -1 0
510 1 19.201735644422023 19.283947279608114 16.413181733388267 0 0 0
505 1 20.64351903179492 20.40313683582677 17.85901928138708 0 0 0
26 1 21.76981862179113 2.855908361944816 19.10954776777221 -1 0 0
32 1 2.579464420288847 0.014627335270484806 18.853732639797 0 0 0
27 1 3.9939100197219846 1.2385795938273993 20.206279829673658 0 0 0
154 1 5.3278710824890645 2.711732372513327 18.99326596012605 0 0 0