LAMMPS (10 Sep 2025)
OMP_NUM_THREADS environment is not set. Defaulting to 1 thread.
  using 1 OpenMP thread(s) per MPI task
Loaded 1 plugins from C:\Users\lmike\AppData\Local\LAMMPS 64-bit 10Sep2025 with GUI\plugins
# LAMMPS input generated from LammpsInputFile with pymatgen v2025.10.7

# STYLES
units metal
atom_style atomic

# SET UP CALCULATION
read_data starting_config.dat
Reading data file ...
  orthogonal box = (0 0 0) to (21.77481 21.77481 21.77481)
  1 by 1 by 1 MPI processor grid
  reading atoms ...
  513 atoms
  read_data CPU = 0.003 seconds
pair_style sw
pair_coeff * * Si.sw Si
Reading sw potential file Si.sw with DATE: 2007-06-11
velocity all create 900 4072544

# CALCULATION PARAMETERS
fix f1 all nvt temp 900.0 900.0 $(100.0*dt)
fix f1 all nvt temp 900.0 900.0 0.10000000000000000555
thermo 100000
thermo_style custom step temp press spcpu cpuremain

# RUN CALC AND WRITE OUTPUTS
dump d1 all custom 100 state_dump id type x y z vx vy vz
run 10000000
Neighbor list info ...
  update: every = 1 steps, delay = 0 steps, check = yes
  max neighbors/atom: 2000, page size: 100000
  master list distance cutoff = 5.77118
  ghost atom cutoff = 5.77118
  binsize = 2.88559, bins = 8 8 8
  1 neighbor lists, perpetual/occasional/extra = 1 0 0
  (1) pair sw, perpetual
      attributes: full, newton on
      pair build: full/bin/atomonly
      stencil: full/bin/3d
      bin: standard
Per MPI rank memory allocation (min/avg/max) = 3.119 | 3.119 | 3.119 Mbytes
   Step          Temp          Press          S/CPU         CPULeft    
         0   900            7566.402       0              0            
    100000   901.96641      5516.2258      919.91118      10761.909    
    200000   897.39378      5233.2879      930.74235      10591.216    
    300000   870.15333      4928.2893      900.96956      10577.488    
    400000   914.74224      5829.0368      863.10626      10631.986    
    500000   939.24504      5141.5757      850.03191      10652.199    
    600000   889.42299      6490.0535      825.87892      10680.361    
    700000   897.98747      4880.7017      779.64653      10761.275    
    800000   854.46464      4688.6805      721.95517      10907.764    
    900000   921.73293      5295.175       923.66353      10685.075    
   1000000   836.17438      4937.8857      830.27486      10594.87     
   1100000   922.14116      4904.0011      926.28338      10398.162    
   1200000   903.13895      5375.4726      922.95186      10219.103    
   1300000   1008.2499      6930.5751      901.70709      10068.007    
   1400000   854.87778      5488.5934      828.0523       9983.2496    
   1500000   907.75024      5871.953       846.90087      9878.4605    
   1600000   937.28791      5116.3012      796.35314      9811.3584    
   1700000   893.41231      5041.3092      799.09314      9735.2752    
   1800000   940.29833      5459.7597      828.53451      9633.4833    
   1900000   896.04596      6345.1514      820.64922      9534.6456    
   2000000   933.23393      4923.3806      833.13902      9426.1991    
   2100000   907.54742      5161.429       845.88903      9309.8438    
   2200000   920.76547      6196.7685      843.22869      9194.6414    
   2300000   866.0806       4059.1551      827.7421       9086.5724    
   2400000   931.84215      5541.5059      844.00455      8970.0702    
   2500000   892.89708      5836.9047      823.517        8862.2524    
   2600000   884.88977      5350.0907      836.58364      8747.9895    
   2700000   853.34084      4263.6466      852.7761       8627.1995    
   2800000   901.56955      5434.9949      836.97012      8512.3558    
   2900000   888.94457      5585.9806      840.66213      8395.9077    
   3000000   912.07955      4783.668       838.54822      8279.9924    
   3100000   876.3109       4921.8438      822.34166      8169.0928    
   3200000   912.5036       4817.8143      838.55937      8052.5265    
   3300000   887.57578      4870.7107      858.44929      7930.1877    
   3400000   897.49644      5138.8657      821.3424       7818.4091    
   3500000   898.34374      5313.1543      819.3879       7706.5998    
   3600000   900.02323      5750.5251      837.4086       7589.5531    
   3700000   911.39365      5470.4368      812.3472       7478.6511    
   3800000   936.91002      5006.2708      827.24039      7363.4912    
   3900000   915.08946      6177.3699      842.48535      7244.6164    
   4000000   879.45529      5758.0593      817.44897      7131.2036    
   4100000   919.73599      6040.6106      832.0436       7014.2679    
   4200000   872.04451      4635.2113      833.45941      6896.8955    
   4300000   816.44453      4633.1148      823.57421      6781.3106    
   4400000   885.2893       6029.8318      837.04977      6662.9726    
   4500000   888.1145       4693.8084      835.33761      6544.8837    
   4600000   887.37613      4987.4733      826.09561      6428.2964    
   4700000   864.55949      4776.7418      841.03846      6309.0939    
   4800000   880.45685      4560.8256      861.45734      6186.8508    
   4900000   929.73158      6636.2823      837.49931      6068.3154    
   5000000   858.9919       5377.5525      818.07044      5952.5812    
   5100000   888.81587      4695.0795      849.49933      5832.2467    
   5200000   888.76343      5527.364       830.52687      5714.4951    
   5300000   886.16021      5734.0133      826.35746      5597.1822    
   5400000   880.73115      4404.584       836.87322      5478.4368    
   5500000   849.66054      4799.4362      812.08239      5362.6489    
   5600000   913.66917      5906.0713      819.88642      5245.6775    
   5700000   876.88161      5064.5014      846.77754      5125.6087    
   5800000   855.86549      3796.2148      813.55438      5009.1003    
   5900000   921.17671      4860.4676      842.91084      4889.3997    
   6000000   877.17269      5763.1887      870.10653      4767.2626    
   6100000   953.77281      5746.1092      850.47375      4647.0581    
   6200000   939.15171      6203.8188      824.17823      4529.2374    
   6300000   898.92942      5543.5138      836.62759      4410.2449    
   6400000   902.9784       5043.6471      819.36095      4292.6525    
   6500000   863.19215      5472.376       849.38904      4172.5998    
   6600000   860.62093      4562.061       851.71004      4052.4522    
   6700000   873.3447       5766.0396      836.79948      3933.4167    
   6800000   880.14488      5461.7391      811.74522      3816.1031    
   6900000   886.5316       4599.4573      867.58924      3695.0567    
   7000000   910.4938       5727.6878      827.29448      3576.5816    
   7100000   905.55431      5176.7977      834.03657      3457.6397    
   7200000   859.17878      6037.4335      855.88298      3337.4811    
   7300000   894.64231      5171.7128      831.9918       3218.6543    
   7400000   888.05161      5472.6625      844.87716      3099.1466    
   7500000   885.08897      6223.299       847.96452      2979.5258    
   7600000   890.25264      4746.5239      845.21131      2860.0709    
   7700000   964.84339      5722.5578      843.3123       2740.7252    
   7800000   900.74378      5554.3551      822.47447      2622.2464    
   7900000   896.57187      4791.6953      839.61235      2503.0294    
   8000000   919.63094      5890.2906      839.00078      2383.8369    
   8100000   922.57068      5398.8705      845.11441      2264.4422    
   8200000   884.97321      4208.2873      838.65748      2145.2736    
   8300000   940.24735      5503.3612      856.18264      2025.6033    
   8400000   913.01333      4716.4781      830.41233      1906.6919    
   8500000   904.70082      5239.577       829.66145      1787.7642    
   8600000   925.99522      5608.169       863.52145      1668.0297    
   8700000   907.53996      5723.4537      880.29157      1548.056     
   8800000   879.82293      5207.6891      855.83292      1428.6699    
   8900000   867.25204      4785.796       837.13723      1309.6634    
   9000000   885.24507      5025.0536      855.09659      1190.3681    
   9100000   915.83949      5527.3866      859.73499      1071.0621    
   9200000   930.89058      5006.2637      834.65286      952.12506    
   9300000   877.82791      5604.801       855.06683      832.95394    
   9400000   893.86953      5302.2617      860.42323      713.78362    
   9500000   899.157        5580.4254      877.94004      594.55331    
   9600000   904.13399      4373.4782      873.913        475.45587    
   9700000   878.6207       5467.3368      879.02713      356.43411    
   9800000   882.39059      4508.7666      863.09787      237.56254    
   9900000   885.84914      5749.3065      790.7768       118.85881    
  10000000   908.94955      5478.9362      895.62058      0            
Loop time of 11878.7 on 1 procs for 10000000 steps with 513 atoms

Performance: 72.735 ns/day, 0.330 hours/ns, 841.845 timesteps/s, 431.866 katom-step/s
99.3% CPU use with 1 MPI tasks x 1 OpenMP threads

MPI task timing breakdown:
Section |  min time  |  avg time  |  max time  |%varavg| %total
---------------------------------------------------------------
Pair    | 11670      | 11670      | 11670      |   0.0 | 98.25
Neigh   | 0.62975    | 0.62975    | 0.62975    |   0.0 |  0.01
Comm    | 29.643     | 29.643     | 29.643     |   0.0 |  0.25
Output  | 119.16     | 119.16     | 119.16     |   0.0 |  1.00
Modify  | 47.516     | 47.516     | 47.516     |   0.0 |  0.40
Other   |            | 11.38      |            |       |  0.10

Nlocal:            513 ave         513 max         513 min
Histogram: 1 0 0 0 0 0 0 0 0 0
Nghost:           1451 ave        1451 max        1451 min
Histogram: 1 0 0 0 0 0 0 0 0 0
Neighs:              0 ave           0 max           0 min
Histogram: 1 0 0 0 0 0 0 0 0 0
FullNghs:        18270 ave       18270 max       18270 min
Histogram: 1 0 0 0 0 0 0 0 0 0

Total # of neighbors = 18270
Ave neighs/atom = 35.614035
Neighbor list builds = 1032
Dangerous builds = 0
write_data FINAL_STRUCTURE
System init for write_data ...
Total wall time: 3:17:58
