LAMMPS (10 Sep 2025)
OMP_NUM_THREADS environment is not set. Defaulting to 1 thread.
  using 1 OpenMP thread(s) per MPI task
Loaded 1 plugins from C:\Users\lmike\AppData\Local\LAMMPS 64-bit 10Sep2025 with GUI\plugins
# LAMMPS input generated from LammpsInputFile with pymatgen v2025.10.7

# STYLES
units metal
atom_style atomic

# SET UP CALCULATION
read_data starting_config.dat
Reading data file ...
  orthogonal box = (0 0 0) to (21.772397 21.772397 21.772397)
  1 by 1 by 1 MPI processor grid
  reading atoms ...
  513 atoms
  read_data CPU = 0.004 seconds
pair_style sw
pair_coeff * * Si.sw Si
Reading sw potential file Si.sw with DATE: 2007-06-11
velocity all create 900 8013112

# CALCULATION PARAMETERS
fix f1 all nvt temp 900.0 900.0 $(100.0*dt)
fix f1 all nvt temp 900.0 900.0 0.10000000000000000555
thermo 100000
thermo_style custom step temp press spcpu cpuremain

# RUN CALC AND WRITE OUTPUTS
dump d1 all custom 100 state_dump id type x y z vx vy vz
run 10000000
Neighbor list info ...
  update: every = 1 steps, delay = 0 steps, check = yes
  max neighbors/atom: 2000, page size: 100000
  master list distance cutoff = 5.77118
  ghost atom cutoff = 5.77118
  binsize = 2.88559, bins = 8 8 8
  1 neighbor lists, perpetual/occasional/extra = 1 0 0
  (1) pair sw, perpetual
      attributes: full, newton on
      pair build: full/bin/atomonly
      stencil: full/bin/3d
      bin: standard
Per MPI rank memory allocation (min/avg/max) = 3.119 | 3.119 | 3.119 Mbytes
   Step          Temp          Press          S/CPU         CPULeft    
         0   900            7907.9668      0              0            
    100000   867.17474      5230.2387      709.57498      13952.014    
    200000   916.89172      5389.6194      536.2077       16043.792    
    300000   871.22356      5001.0457      722.62833      15061.127    
    400000   875.42619      5969.1129      705.17642      14582.797    
    500000   1027.9734      6300.3496      433.94498      15923.15     
    600000   927.73821      6093.1479      539.11279      16035.624    
    700000   865.87077      4918.7684      555.83145      15988.84     
    800000   899.0781       5406.7588      560.50583      15891.521    
    900000   882.43959      5614.5649      554.57055      15795.488    
   1000000   878.8072       5644.0789      558.42985      15671.381    
   1100000   878.20391      5817.3273      566.99234      15515.401    
   1200000   919.71853      6400.8221      544.46808      15409.528    
   1300000   911.71728      5786.9445      544.66851      15291.235    
   1400000   952.94798      6460.6176      567.37446      15118.479    
   1500000   907.97836      6387.5215      565.46759      14948.624    
   1600000   925.7573       5332.38        555.51658      14794.527    
   1700000   922.43589      5474.9957      560.86955      14628.993    
   1800000   936.09421      6298.5828      568.96593      14450.482    
   1900000   934.49211      7046.7851      556.68785      14288.788    
   2000000   893.68126      5367.7569      544.18456      14141.809    
   2100000   924.14987      5276.3562      542.56837      13993.386    
   2200000   885.77662      5342.7366      553.70371      13828.559    
   2300000   870.66242      5125.6684      535.7165       13682.661    
   2400000   905.83125      4818.1172      546.22094      13521.998    
   2500000   874.47959      5183.5364      540.95556      13364.889    
   2600000   875.62799      5041.6186      550.73705      13196.3      
   2700000   837.11302      4825.6295      561.07825      13017.701    
   2800000   912.50145      5177.836       544.92724      12852.711    
   2900000   900.28583      6349.1564      549.61092      12682.616    
   3000000   961.83724      6091.3008      572.96493      12494.427    
   3100000   835.63362      5684.6772      564.43235      12312.991    
   3200000   975.93569      5891.5787      540.86017      12148.23     
   3300000   861.86153      5437.8757      544.06041      11980.041    
   3400000   897.45924      5998.705       558.7413       11801.559    
   3500000   916.00488      4375.8415      561.40271      11621.473    
   3600000   917.22277      6156.3949      562.9838       11440.607    
   3700000   932.64039      5709.6858      548.22259      11268.059    
   3800000   913.44453      6371.3339      551.81601      11093.054    
   3900000   914.28376      6439.8684      553.30083      10916.97     
   4000000   851.21135      5195.6439      546.87034      10743.841    
   4100000   902.10067      5961.0939      554.17589      10566.769    
   4200000   890.98919      5501.5292      561.91109      10386.106    
   4300000   959.00874      5998.2632      551.5215       10210.012    
   4400000   855.13692      4463.4203      542.77274      10037.4      
   4500000   905.57896      5099.0014      547.72828      9862.2348    
   4600000   904.69851      5227.7125      550.89803      9685.514     
   4700000   856.00676      5468.7002      566.58324      9502.9221    
   4800000   845.047        5174.1446      530.29489      9333.6684    
   4900000   899.88931      5910.6803      539.65039      9160.2235    
   5000000   964.21579      6791.9913      561.90104      8978.9663    
   5100000   857.13508      5624.5108      529.66302      8808.2454    
   5200000   879.02245      5309.4182      557.37286      8628.165     
   5300000   921.18688      4723.9463      559.42245      8447.5268    
   5400000   943.30072      5927.9579      548.3236       8270.0406    
   5500000   879.54627      5277.8641      546.48519      8092.8787    
   5600000   839.58087      4874.7808      568.83304      7909.8601    
   5700000   912.38652      5600.1481      549.60885      7731.7336    
   5800000   888.34997      5480.3221      546.57266      7554.2073    
   5900000   860.12637      5055.0858      550.82603      7375.5151    
   6000000   886.26107      5491.9868      565.80643      7193.5233    
   6100000   1011.8856      5611.7005      537.81746      7017.5843    
   6200000   955.65505      5848.5908      543.27536      6840.178     
   6300000   906.0446       5435.8507      565.84519      6658.2482    
   6400000   940.47178      6008.8967      552.65258      6478.854     
   6500000   871.37145      5202.9857      546.07296      6300.586     
   6600000   882.87049      6103.6077      560.81676      6119.6908    
   6700000   933.19369      6222.4119      555.12457      5939.7732    
   6800000   895.33532      5932.7762      555.65874      5759.7675    
   6900000   888.28968      5937.295       563.27959      5578.6691    
   7000000   891.39171      5198.6262      565.25535      5397.4067    
   7100000   900.43241      6450.7712      549.80589      5218.2973    
   7200000   948.53008      5482.0316      547.40988      5039.4205    
   7300000   910.80717      6130.4605      541.9403       4861.1214    
   7400000   862.36392      5565.372       545.52131      4682.2286    
   7500000   907.93751      6370.9318      565.1694       4501.0937    
   7600000   912.16432      6734.4114      554.77314      4321.1163    
   7700000   921.45842      5678.0552      545.96042      4142.0008    
   7800000   887.61227      5232.3249      554.28503      3962.0056    
   7900000   926.29553      5291.4695      541.64351      3783.1192    
   8000000   893.7838       5308.5577      576.56306      3601.2939    
   8100000   856.82966      5948.2008      544.88696      3422.0407    
   8200000   931.49758      5814.0486      540.2726       3243.0275    
   8300000   855.36199      4333.5562      536.45169      3064.1377    
   8400000   926.11879      5303.1835      563.76199      2883.3489    
   8500000   870.66654      5212.8791      562.55001      2702.7077    
   8600000   855.77344      4638.3219      559.39494      2522.2967    
   8700000   896.9031       5519.9969      546.61602      2342.548     
   8800000   908.31468      5502.2747      570.71987      2161.6731    
   8900000   861.57379      5648.9142      537.20255      1982.2765    
   9000000   866.74         5586.6194      537.78597      1802.7074    
   9100000   889.08988      5521.0547      549.02893      1622.6215    
   9200000   889.65466      6497.58        546.35124      1442.5686    
   9300000   885.20278      6653.5324      538.4708       1262.6532    
   9400000   905.57327      5822.1906      550.19251      1082.362     
   9500000   921.33369      5395.5715      544.85599      902.13363    
   9600000   836.73851      4827.6754      559.01462      721.64272    
   9700000   906.70134      5244.3885      545.98706      541.3169     
   9800000   888.97406      5413.4919      558.28501      360.85101    
   9900000   930.8786       6126.3382      556.52231      180.41805    
  10000000   880.00412      5731.5904      577.33741      0            
Loop time of 18034.6 on 1 procs for 10000000 steps with 513 atoms

Performance: 47.908 ns/day, 0.501 hours/ns, 554.490 timesteps/s, 284.453 katom-step/s
99.5% CPU use with 1 MPI tasks x 1 OpenMP threads

MPI task timing breakdown:
Section |  min time  |  avg time  |  max time  |%varavg| %total
---------------------------------------------------------------
Pair    | 17754      | 17754      | 17754      |   0.0 | 98.45
Neigh   | 0.61438    | 0.61438    | 0.61438    |   0.0 |  0.00
Comm    | 43.618     | 43.618     | 43.618     |   0.0 |  0.24
Output  | 154.81     | 154.81     | 154.81     |   0.0 |  0.86
Modify  | 64.766     | 64.766     | 64.766     |   0.0 |  0.36
Other   |            | 16.45      |            |       |  0.09

Nlocal:            513 ave         513 max         513 min
Histogram: 1 0 0 0 0 0 0 0 0 0
Nghost:           1450 ave        1450 max        1450 min
Histogram: 1 0 0 0 0 0 0 0 0 0
Neighs:              0 ave           0 max           0 min
Histogram: 1 0 0 0 0 0 0 0 0 0
FullNghs:        18254 ave       18254 max       18254 min
Histogram: 1 0 0 0 0 0 0 0 0 0

Total # of neighbors = 18254
Ave neighs/atom = 35.582846
Neighbor list builds = 815
Dangerous builds = 0
write_data FINAL_STRUCTURE
System init for write_data ...
Total wall time: 5:00:34
