LAMMPS data file via write_data, version 29 Aug 2024, timestep = 10000000, units = metal

512 atoms
2 atom types

0 21.74780435 xlo xhi
0 21.74780435 ylo yhi
0 21.74780435 zlo zhi

Masses

1 28.0855
2 12.011

Atoms # atomic

1 1 0.07307954352549359 21.73969136864132 0.04896238503477403 0 -1 0
2 1 21.53677013024216 2.779877149839507 2.7469991507299754 -1 0 0
3 1 2.688060457455246 21.61404461839016 2.698637729203738 0 -1 0
4 1 2.629688680352346 2.777610094407973 21.696450554927278 0 0 -1
5 1 1.379915588752658 1.310317386336961 1.447306644190495 0 0 0
9 1 5.433343644830526 0.1076359598759495 21.70616197799433 0 0 -1
10 1 5.372659882039965 2.526001983067376 2.743580195334343 0 0 0
11 1 8.171837097209629 0.0033613881109150366 2.693786301185407 0 0 0
12 1 8.06639216806509 2.809854745662356 21.686688571871354 0 0 -1
13 1 6.793341173540459 1.333528535428738 1.470021799886831 0 0 0
17 1 10.82394761178286 21.67595789711881 0.1462069682846805 0 -1 0
18 1 10.888116333991082 2.7009635410468684 2.903472280266255 0 0 0
21 1 12.139032746739955 1.3675610131741176 1.4395244004498613 0 0 0
19 1 13.646524087729306 21.623726365965922 2.748581351201243 0 -1 0
20 1 13.545458776673854 2.7494485370980697 0.1211716339129683 0 0 0
25 1 16.20640108411157 0.17733627404446445 21.619531930938063 0 0 -1
26 1 16.388412724525537 2.774588352544776 2.836704772809516 0 0 0
29 1 17.643441232493835 1.42605597480247 1.4083514993489916 0 0 0
27 1 19.0056468488709 0.1624210180277271 2.887965276706507 0 0 0
28 1 19.012972098049023 2.687490879446653 21.716345651095466 0 0 -1
33 1 0.03779221534091491 5.505418915272126 21.729558860612627 0 0 -1
35 1 2.757734134934968 5.48270751736852 2.7106923197677975 0 0 0
8 1 4.054303686403504 3.9873370000580386 1.3816388109152673 0 0 0
41 1 5.380538763090808 5.414704071517151 0.09915385786205906 0 0 0
43 1 8.177739261397004 5.418624431528798 2.686929572504546 0 0 0
16 1 9.479294004887711 3.9960491536656133 1.423340178626466 0 0 0
49 1 10.874531987979896 5.559253232785006 0.0736389762982791 0 0 0
24 1 15.10948297761933 4.202090956808086 1.4484795047756673 0 0 0
51 1 13.64801675730478 5.670751237632989 2.5651153685565067 0 0 0
57 1 16.491829478773163 5.433213039408546 21.67164160087805 0 0 -1
32 1 20.32385094211992 4.124771955001861 1.2567488945322804 0 0 0
59 1 18.809974130356174 5.393778382668608 2.655543130900117 0 0 0
34 1 21.646359774065985 7.999303279856739 2.687978633164888 -1 0 0
36 1 2.7971389591129667 8.042931502558808 0.05884019219756473 0 0 0
37 1 1.3666481553520213 6.776031607168105 1.4566117579437488 0 0 0
42 1 5.617311261366383 8.17490823917976 2.8482079832861515 0 0 0
44 1 8.121399708000013 8.343416268664159 0.03291772344817456 0 0 0
45 1 6.883137346540354 6.678935876603073 1.308271535402602 0 0 0
50 1 10.928448396373742 8.149354093345583 2.7468865021270856 0 0 0
53 1 12.254722425842774 7.0062602247739845 1.272766568380068 0 0 0
52 1 13.624550722257029 8.275701080004787 21.632412477286163 0 0 -1
58 1 16.331015014696465 8.14698795678267 2.5970488249649217 0 0 0
61 1 17.72592903935065 6.917167269400848 1.0807811026678646 0 0 0
60 1 19.103263249191663 8.184966812731663 21.489115720458475 0 0 -1
65 1 0.04796020081017701 10.9205567394991 21.736430990062914 0 0 -1
67 1 2.683738825919367 10.690908062598451 2.7757329567501756 0 0 0
69 1 1.580053014392779 12.213682287924367 1.3282834452910959 0 0 0
40 1 4.359614449061884 9.421965159393514 1.3589714291568018 0 0 0
73 1 5.439051612122202 10.924455868751052 0.04783825897947837 0 0 0
75 1 8.091838991828437 10.90372992872838 2.6887581747858973 0 0 0
77 1 6.773732531806645 12.321151024419644 1.372823339235756 0 0 0
48 1 9.61182980968973 9.653081262117597 1.3990989845413329 0 0 0
81 1 11.040352451082018 10.908356996054046 0.009704165223487507 0 0 0
85 1 12.287989268202796 12.305455597521318 1.436402290115555 0 0 0
56 1 14.87516953467169 9.577395505452436 1.306604916880754 0 0 0
83 1 13.604716331409385 10.861687004490156 2.7612681424570202 0 0 0
89 1 16.290552604199565 10.836307726587902 21.69411801780315 0 0 -1
93 1 17.604646717339055 12.350730391878024 1.3657043054938902 0 0 0
64 1 20.41593913079497 9.515959669810643 1.3704844421591178 0 0 0
91 1 19.064993271446436 10.93319868595313 2.6261078629468413 0 0 0
66 1 0.06418278895618493 13.523711735012128 2.706075641144223 0 0 0
68 1 2.777427704279728 13.679756049906416 0.005052893857837061 0 0 0
72 1 4.330063292277655 15.054347850321633 1.2286942859748022 0 0 0
74 1 5.450205380516659 13.624397951971652 2.6030578066413166 0 0 0
76 1 8.176159558784311 13.737611819486526 0.056151125206237794 0 0 0
80 1 9.662076266878794 15.088463035710443 1.427995547539815 0 0 0
82 1 10.74876292799184 13.55705473632977 2.749329473781879 0 0 0
84 1 13.609476028149396 13.612148690155154 0.00539034524462423 0 0 0
88 1 14.908204506620528 15.026668112912008 1.379014638797084 0 0 0
90 1 16.22769727592832 13.636142788791181 2.69231923658239 0 0 0
92 1 19.174739257464417 13.595129956675121 21.68622475905334 0 0 -1
96 1 20.42084004890529 14.91608513475661 1.334047284915494 0 0 0
97 1 21.72214250094318 16.40048297645643 0.13857319391080614 -1 0 0
99 1 2.8368149015879873 16.28938188488792 2.808136563930304 0 0 0
101 1 1.4025028879765609 17.679422995248537 1.5136110462037566 0 0 0
105 1 5.554519362001814 16.373698187958468 21.622039911290322 0 0 -1
107 1 8.35036645853333 16.41806173540817 2.7655471652640644 0 0 0
109 1 6.760644748151703 17.76317581087917 1.4692841176027764 0 0 0
113 1 10.878344951109863 16.276756662840967 21.508759432987006 0 0 -1
117 1 12.17129683886183 17.528012417010025 1.3165921632180768 0 0 0
115 1 13.490715878787903 16.393735966959937 2.8166561664141128 0 0 0
121 1 16.38343210943836 16.237109878788466 0.08327884862232025 0 0 0
125 1 17.834605875784355 17.611248984948777 1.3585497129280755 0 0 0
123 1 19.090194811252942 16.26243933173674 2.716264651514385 0 0 0
98 1 0.012989127948915944 19.091177737923083 2.663567070635072 0 0 0
100 1 2.717233525264671 18.885095796224523 0.02589884463691707 0 0 0
104 1 3.927053377221782 20.394617250687514 1.1114976982855127 0 0 0
106 1 5.298018648527157 19.27600896430474 2.487040534090049 0 0 0
108 1 8.02349071147767 19.26178855291736 0.08517213549547986 0 0 0
112 1 9.491406704747988 20.418297243904078 1.4715593587238454 0 0 0
114 1 10.885901443890969 19.050452825354967 2.6718514937904887 0 0 0
116 1 13.488468225518373 18.964048503267406 0.027045249252969476 0 0 0
120 1 14.98617680932027 20.26713128861154 1.2680749481986657 0 0 0
122 1 16.420972237010112 19.028934743967696 2.6676666394599877 0 0 0
124 1 19.02207088936883 19.161314493027565 21.71135474436486 0 0 -1
128 1 20.31915850227255 20.483750493663607 1.4909908185401932 0 0 0
129 1 21.665195368771204 0.0790884810497462 5.603805760729172 -1 0 0
132 1 2.5880107505726087 2.8598766021875566 5.338896282761121 0 0 0
7 1 4.036294464267129 1.2821998266132477 4.171521205348571 0 0 0
137 1 5.481602654124125 0.07635858828155799 5.424001729061981 0 0 0
140 1 8.323305290088962 2.8301026403531777 5.597204491206298 0 0 0
15 1 9.456445113759264 1.3759556536534894 4.181865864214174 0 0 0
145 1 10.955222232458278 21.494115797142356 5.445229244499934 0 -1 0
23 1 15.036660876651306 1.405354706762376 4.122005145203293 0 0 0
148 1 13.538293509914281 2.6234949937235563 5.444500532502739 0 0 0
153 1 16.43227883754976 21.711308593727978 5.433616685906573 0 -1 0
31 1 20.294249971967904 1.5148769005611613 4.324228105704827 0 0 0
156 1 19.040680167761717 2.959669491656408 5.671700846126039 0 0 0
6 1 1.1334214134859217 4.308591093143456 4.155830958032944 0 0 0
161 1 21.596876350138853 5.6374991126108025 5.612685681101351 -1 0 0
169 1 5.3308255552724955 5.284973305368054 5.43110754775079 0 0 0
14 1 6.8051369888001245 3.9465254670272896 4.122250884804786 0 0 0
22 1 12.279739702709682 4.081186769143697 4.004745116501808 0 0 0
177 1 10.945032960767879 5.539882551622192 5.217917438649988 0 0 0
30 1 17.720058023720632 4.106381547467153 4.09642269494149 0 0 0
185 1 16.233081489238444 5.504349671151092 5.387057784162543 0 0 0
164 1 2.7348224285806366 8.10116219122811 5.531841796090166 0 0 0
39 1 4.100066467685921 6.8641214827149035 4.037351417362143 0 0 0
172 1 8.156643267576516 8.080207139782763 5.542533482634523 0 0 0
47 1 9.466739039025946 6.793069426596204 4.119054885783242 0 0 0
55 1 15.076611485153736 6.839208583707885 3.9501617523428103 0 0 0
180 1 13.72487879422244 8.218714600284567 5.365216831627138 0 0 0
63 1 20.2100752256127 6.81564378296193 4.030310831315856 0 0 0
188 1 18.912431833505007 8.207859701211724 5.4114860116703 0 0 0
38 1 1.2875116791610235 9.403912192058087 4.160829377469178 0 0 0
193 1 21.618139303595214 10.716697466027574 5.549140602520467 -1 0 0
71 1 4.104205791828701 12.157483094187834 4.001161843805725 0 0 0
201 1 5.4040056665315435 10.890429326640255 5.564312390275272 0 0 0
46 1 6.929082765996256 9.595887422518485 4.218377129876432 0 0 0
54 1 12.14456603065148 9.485645963936422 4.086861176989446 0 0 0
79 1 9.474473810013443 12.173822247889921 4.016161104150973 0 0 0
209 1 10.947026653790282 10.82534007319569 5.370593033120342 0 0 0
87 1 14.945859902223166 12.31739613969916 4.071053199815054 0 0 0
62 1 17.734251908702014 9.546915120573502 3.926986007500851 0 0 0
217 1 16.46826922463275 10.835615163101869 5.366731539076771 0 0 0
95 1 20.57094256476638 12.16393857470691 4.020086310708847 0 0 0
70 1 1.385695509495666 14.884045503556363 4.0433494616193535 0 0 0
196 1 2.5090743477180486 13.539800798476428 5.341102524382405 0 0 0
78 1 6.798856764475093 14.884925587307348 4.053920351417386 0 0 0
204 1 8.277741476416006 13.616292306915268 5.292513995867256 0 0 0
86 1 12.037625877645997 14.97502731433646 4.00545698127986 0 0 0
212 1 13.486307411472605 13.59314917289011 5.401698268444503 0 0 0
94 1 17.683490391676006 15.019214402502751 4.039887612203498 0 0 0
220 1 19.12160450197338 13.642359807493996 5.3324263302201 0 0 0
225 1 21.718571092907418 16.307976013541495 5.304769825830725 -1 0 0
103 1 4.154205383506517 17.654038032211425 3.997323733664471 0 0 0
233 1 5.375098331818327 16.320174191179152 5.440352188870759 0 0 0
111 1 9.522739726375876 17.90147426968487 4.243316178327208 0 0 0
241 1 10.847686002869375 16.43133669430515 5.465741250878614 0 0 0
119 1 15.081257409993114 17.694566752041833 3.942206886791287 0 0 0
249 1 16.368714505653738 16.39521257689804 5.542217646506051 0 0 0
127 1 20.50564849336199 17.756110126949174 3.951123730194581 0 0 0
102 1 1.2754232431849795 20.421080842039895 4.205553749030166 0 0 0
228 1 2.733011546549277 18.965747443666213 5.364522687054071 0 0 0
110 1 6.7866748664869965 20.4376014187586 4.021817539605397 0 0 0
236 1 8.083537378330737 19.1660756223184 5.484619749573879 0 0 0
118 1 12.314045967048902 20.24155010597868 4.103968900027531 0 0 0
244 1 13.766102758053526 18.833972894042105 5.427731548869734 0 0 0
126 1 17.78850972214651 20.303069461669924 4.057160638327748 0 0 0
252 1 19.26695969467298 19.00681161819108 5.391372006215612 0 0 0
130 1 0.14711755515590477 2.9468696513287522 8.28260828489669 0 0 0
131 2 2.7794813414743142 0.04650823880323678 8.207659141973703 0 0 0
133 1 1.350450375858813 1.4199914005415113 6.846404182112979 0 0 0
138 1 5.518132013167126 2.7805051061460477 8.17969050703142 0 0 0
139 1 8.096565837298597 0.005118826103552803 8.184550463510863 0 0 0
141 1 6.847396453474099 1.4558895618301189 6.740817945850375 0 0 0
146 1 10.869182730908687 2.661974185252568 8.043547856315513 0 0 0
149 1 12.31349473854236 1.2107420493573955 6.677683246742375 0 0 0
147 1 13.641076276291377 21.639008992628987 8.084473191258848 0 -1 0
154 1 16.266940146998515 2.9537752302848808 8.18561162185637 0 0 0
157 1 17.65341395922446 1.3850135585199161 6.937936726212507 0 0 0
155 1 19.029617137658665 0.0026018382709983657 8.109135876351733 0 0 0
163 1 2.7651144957853684 5.41242250285814 8.33053213630514 0 0 0
136 1 3.9592039882844516 4.007675234175809 6.875209396234924 0 0 0
171 1 8.16040494660366 5.427319932087783 8.113865924004624 0 0 0
144 1 9.692600952962676 4.267840611306147 6.784050995571743 0 0 0
152 1 14.811724019770287 4.09795036551913 6.820870725828753 0 0 0
179 1 13.5214752450951 5.429349131214443 8.204807448621374 0 0 0
160 1 20.352882304751212 4.295029415265909 6.983428590279894 0 0 0
187 1 19.025129817274756 5.546011262735454 8.371563035864595 0 0 0
162 1 21.63299205116159 8.251804043926503 8.241766291771759 -1 0 0
165 1 1.3592904455613943 6.797265685226409 7.1124107447986535 0 0 0
170 1 5.57173019878703 7.9980153833071865 8.217805430732005 0 0 0
173 1 6.7368587859611715 6.632814277599735 6.754472989374055 0 0 0
178 1 10.99476008722577 7.962129852496251 8.136265995625996 0 0 0
181 1 12.351873725708366 6.699858027359424 6.693012217450458 0 0 0
186 1 16.22358528034524 8.225813253678476 8.201080004937618 0 0 0
189 1 17.57021193862446 6.896418734408454 6.868734556470302 0 0 0
195 1 2.578241219973245 10.731927039986099 8.227764487929617 0 0 0
197 1 1.3074540974629842 12.03089463384971 6.762627823201806 0 0 0
168 1 4.0997508697492195 9.485558366957386 6.920705734652952 0 0 0
203 1 8.170403503575749 10.72568144187888 8.125822181754865 0 0 0
205 1 6.826568818062053 12.15465263391944 6.725932693094553 0 0 0
176 1 9.621564557974901 9.403044715247383 6.687600213166125 0 0 0
213 1 12.106016573558893 12.1693215617156 6.849425822200894 0 0 0
184 1 14.86544198406243 9.576297554762718 6.8146129392223 0 0 0
211 1 13.552075551593573 10.949855427350185 8.16640661990567 0 0 0
221 1 17.65883190175654 12.289772612792305 6.639737290081832 0 0 0
192 1 20.235884617992554 9.44560144536951 6.853668648185759 0 0 0
219 1 19.020608625588203 10.889671870212409 7.993143809324472 0 0 0
194 1 0.06719797896125188 13.544658007614318 8.220892597484195 0 0 0
200 1 3.967008015339361 14.86914540908019 6.688978654926267 0 0 0
202 1 5.415041688737936 13.527028287837657 8.020345835888445 0 0 0
208 1 9.48853217105427 15.025807462917342 6.741163719606034 0 0 0
210 1 10.721699299671648 13.506449351568246 8.24807919525481 0 0 0
216 1 15.021272055917393 14.92880719929019 6.841134763352627 0 0 0
218 1 16.305063101413776 13.45243880312208 8.131797489484272 0 0 0
224 1 20.549126943364143 14.871228553459277 6.66906259700388 0 0 0
227 1 2.885947274277375 16.214060726574232 8.20366099293779 0 0 0
229 1 1.3955956085706962 17.458185047695025 6.709039265350547 0 0 0
235 1 8.01558876326842 16.19360362985085 8.19394560829902 0 0 0
237 1 6.694220763625169 17.720120216913447 6.816079612202802 0 0 0
245 1 12.30720687185797 17.46337102485198 6.807448805500148 0 0 0
243 1 13.624917058412901 16.097883076042926 8.111948452971513 0 0 0
253 1 17.9183918305825 17.570796898454162 6.758284552200097 0 0 0
251 1 19.28190946621036 16.170838037476777 8.214393557514136 0 0 0
226 1 0.049372576394031 18.864221649567824 8.079496197615805 0 0 0
232 1 4.007671706793973 20.437841154429417 6.755553258826273 0 0 0
234 1 5.293324547903862 19.067077793253368 8.312006672267417 0 0 0
240 1 9.504522176147525 20.49969898613728 6.862516039921932 0 0 0
242 1 10.747102577097673 18.83279940454618 8.045610289769337 0 0 0
248 1 15.101383534378307 20.248340053538975 6.888640545987361 0 0 0
250 1 16.404484023365736 18.809254459159302 8.262664302449169 0 0 0
256 1 20.370632881993505 20.33722551034995 6.876235248549707 0 0 0
257 1 0.07674530653293889 0.12497192288457883 10.709670863787228 0 0 0
260 1 2.6842113350794676 2.6331818050378453 11.12530635899539 0 0 0
261 1 1.371576128150252 1.2664000337053478 12.312139407042396 0 0 0
135 1 4.021155692927252 1.3855715410157559 9.593129946139909 0 0 0
265 1 5.285413735507606 21.685901767820173 10.79201396524815 0 -1 0
268 1 8.138334308158704 2.634337061577566 10.998949162796594 0 0 0
269 1 6.767853516635438 1.139097487726679 12.332213744877706 0 0 0
143 1 9.432515685254568 1.3709427468651028 9.484254011330279 0 0 0
273 1 10.826382685865019 21.649713834147104 10.793691226118957 0 -1 0
277 1 12.208392123071832 1.2414039838274682 12.095452780910692 0 0 0
151 1 15.014473533166326 1.271207109383467 9.357014982463363 0 0 0
276 1 13.626063136269797 2.647236794455418 10.926755062273422 0 0 0
281 1 16.312619020107835 21.701903163572688 10.799678525811858 0 -1 0
285 1 17.623868212109443 1.4491321194154143 12.30754638005753 0 0 0
159 1 20.474733595385505 1.4178863059616016 9.34949578180133 0 0 0
284 1 18.91284804580933 2.477502580291946 10.815659461711391 0 0 0
134 1 1.4465074519197934 4.25502686761705 9.796218915880393 0 0 0
289 1 21.70505931377068 5.528640516454854 10.92328333363263 -1 0 0
264 1 4.242229247594762 4.068927000053345 12.371545540235422 0 0 0
297 1 5.479326526937945 5.346409246264265 10.860576225279612 0 0 0
142 1 6.866702552704818 4.150784487831474 9.63340949803238 0 0 0
150 1 12.21244718704384 3.913033610184276 9.55989170661443 0 0 0
272 1 9.446339683912413 3.990271101041123 12.302498879450047 0 0 0
305 1 10.68432071326769 5.318203454630967 10.84572874182411 0 0 0
280 1 14.898544467530478 4.118432022020045 12.269476023866263 0 0 0
158 1 17.632277077504046 4.143326637179696 9.667177741941376 0 0 0
313 1 16.1800123949076 5.4924124229851 10.96130121383316 0 0 0
288 1 20.428163344621346 3.9558337912186565 12.16886706255543 0 0 0
292 1 2.7074047935593217 8.138994308145596 10.915815255165182 0 0 0
293 1 1.343928514765117 6.822545539798977 12.215345502403562 0 0 0
167 1 4.037781726758945 6.796288240856182 9.597063018911463 0 0 0
300 1 8.182934608931115 8.107736420025182 10.91298417418602 0 0 0
301 1 6.819513402313938 6.7003685465034675 12.280482953657051 0 0 0
175 1 9.42102595346828 6.78668515672089 9.507584682848655 0 0 0
309 1 12.102517342671977 6.872772754982023 12.14726074471454 0 0 0
183 1 14.939036181811172 6.680369944348399 9.546779106675023 0 0 0
308 1 13.551876609186028 8.077159825898633 10.831632432569796 0 0 0
317 1 17.692985969117846 6.84686160769385 12.27910336999482 0 0 0
191 1 20.38823968445362 6.850211554996908 9.726944790738242 0 0 0
316 1 18.978836911922592 8.358404252724991 10.946937587621942 0 0 0
166 1 1.1844857259082178 9.420834104946715 9.576449434763726 0 0 0
321 1 0.09228891508662967 10.926580359545813 10.888928161002406 0 0 0
325 1 1.5362613756525498 12.391282907815718 12.212026398322463 0 0 0
199 1 3.9726723264291306 12.256171916020236 9.367545804368342 0 0 0
296 1 4.142581885509331 9.475006194301844 12.262056833754917 0 0 0
329 1 5.319719689031561 10.859711112754114 10.782954463776518 0 0 0
174 1 6.79096102676803 9.555965983085384 9.513275310605733 0 0 0
333 1 6.598568884457987 12.190778910192975 12.299133610390376 0 0 0
182 1 12.256557648993638 9.434954197726285 9.544526631440785 0 0 0
207 1 9.484298527081055 12.24517153144134 9.662050531065887 0 0 0
304 1 9.466400347917471 9.667813254632664 12.448046487146557 0 0 0
337 1 10.898111742427796 10.778981372601233 10.891310935749914 0 0 0
341 1 12.18084407669717 12.027347900744505 12.220215714646919 0 0 0
215 1 14.883491097323317 12.273816528962076 9.64397635523275 0 0 0
312 1 14.860869503741979 9.387000711215702 12.233004166548762 0 0 0
190 1 17.58448948924859 9.616513659723713 9.445093694431748 0 0 0
345 1 16.242287254020216 10.88215911873795 10.938243276360396 0 0 0
349 1 17.726400280592493 12.282440227230438 12.25148374458884 0 0 0
223 1 20.394930106135543 12.307344559454124 9.440477080733444 0 0 0
320 1 20.26534581946314 9.717817436152368 12.35268587580682 0 0 0
198 1 1.3383877730698746 15.018665676824662 9.527469743098099 0 0 0
324 1 2.8995765250336714 13.702955855660145 10.903805400805808 0 0 0
328 1 4.000932426846583 15.011055771692748 12.222468287265507 0 0 0
206 1 6.740052819713811 14.754654619022876 9.542583518398445 0 0 0
332 1 8.055134315849987 13.544544353766767 11.096517079324851 0 0 0
214 1 12.151650599996078 14.763839702607424 9.63136199367284 0 0 0
336 1 9.508252467599242 14.913991234340902 12.516218155516562 0 0 0
340 1 13.418423935925885 13.435614223160863 10.94557458044964 0 0 0
344 1 14.980249981632545 14.862524150762257 12.17689227978127 0 0 0
222 1 17.891974894349087 14.735655158279407 9.243370781701731 0 0 0
348 1 19.164316351267924 13.485382722901413 10.801587291415487 0 0 0
352 1 20.436752164829745 14.951989547514646 12.061941460530596 0 0 0
353 1 21.74190672205422 16.34583477370423 10.94090510076906 -1 0 0
357 1 1.2465849789661234 17.767888461935637 12.289820577160038 0 0 0
231 1 4.162922708459608 17.548913464218217 9.722388449950104 0 0 0
361 1 5.6047047534957555 16.172828415343645 11.065561717101808 0 0 0
365 1 6.821498428743129 17.756794065321895 12.28077306446969 0 0 0
239 1 9.413994805738708 17.59909057423215 9.53115868965322 0 0 0
369 1 10.7954755534721 16.309673752589273 10.930915684295165 0 0 0
373 1 11.986510692545526 17.63641181185324 12.300660561115862 0 0 0
247 1 14.867788028146734 17.468694067181755 9.55574168115198 0 0 0
377 1 16.364055552716504 16.133877569361527 10.768971714533823 0 0 0
381 1 17.591692042597796 17.701893603141578 12.197666642023695 0 0 0
255 1 20.377078574119714 17.612498936501957 9.581081622882456 0 0 0
230 1 1.4983762326092203 20.303436068175444 9.565125185054018 0 0 0
356 1 2.7577656120890013 18.97000822475686 10.985668236293876 0 0 0
360 1 3.985977713580568 20.52725317281655 12.216624024462185 0 0 0
238 1 6.686590584926518 20.30173033844225 9.434168521581483 0 0 0
364 1 8.115343233062221 18.99088994660192 10.748991058333521 0 0 0
246 1 12.118319071700627 20.24065816158962 9.426730552832918 0 0 0
368 1 9.490003370053595 20.35868206356238 12.157001208239372 0 0 0
372 1 13.374967913606532 18.863858385589577 10.813504034220424 0 0 0
376 1 14.840549375078051 20.253001315526998 11.960690408692676 0 0 0
254 1 17.677312520162104 20.345113798022552 9.45471165674219 0 0 0
380 1 18.95438512911289 18.96677047650631 10.916566524710726 0 0 0
384 1 20.456128950107104 20.43247335524936 12.265600736507231 0 0 0
258 1 0.05490794006727515 2.6974453003236194 13.518723424859191 0 0 0
259 1 2.7721940599720325 0.015292712712726485 13.674025115429767 0 0 0
263 1 4.153363848042634 1.3846584483928746 14.903702970600445 0 0 0
266 1 5.660564681967731 2.5609348121470976 13.625742884578191 0 0 0
267 1 8.302129692738387 21.661324871027 13.6013031004476 0 -1 0
271 1 9.72301629712166 1.3820970229026244 14.929228687673122 0 0 0
274 1 11.04899251629095 2.8346755448087806 13.573408339929257 0 0 0
275 1 13.671095460517085 0.0038042161157580264 13.533790151241204 0 0 0
279 1 14.949871842452916 1.2975002378942817 14.913447741476833 0 0 0
282 1 16.279933184542703 2.686306890132382 13.53458129078469 0 0 0
283 1 18.993440833821705 0.06966640275555466 13.437444668788391 0 0 0
287 1 20.297914137918145 1.2754111797899799 14.88822889751567 0 0 0
262 1 1.3281696450235092 4.056999643885676 14.883795999111511 0 0 0
291 1 2.659996409088275 5.406058479331661 13.566219108137933 0 0 0
270 1 6.87923319616197 3.983360097015827 15.07419086870566 0 0 0
299 1 8.18044668059058 5.339088939216253 13.714985536815613 0 0 0
278 1 12.253882594653302 4.233844128824621 14.907168381051138 0 0 0
307 1 13.773960577450252 5.608596597292543 13.66578279204161 0 0 0
286 1 17.650133530525082 4.173610108510189 14.769876747637628 0 0 0
315 1 18.997229160212864 5.334266699862506 13.444286197513124 0 0 0
290 1 21.713832779497697 8.241725002334562 13.533192271339301 -1 0 0
295 1 4.119515441222304 6.917548657052712 14.963581770250643 0 0 0
298 1 5.490680765140501 8.201012754292668 13.670791789725046 0 0 0
303 1 9.475431653576068 6.920259820250006 14.994195755714927 0 0 0
306 1 10.890713648431438 8.220791211061083 13.59780202051063 0 0 0
311 1 14.980748805481436 7.024638033213989 15.106087560060269 0 0 0
314 1 16.29376181086483 8.23386599318226 13.690646859651183 0 0 0
319 1 20.223806676192684 6.7765519404309265 14.87094870463913 0 0 0
294 1 1.2514224130464893 9.650692813247723 14.915576555613924 0 0 0
323 1 2.736672856267188 10.837961984246475 13.57291134310346 0 0 0
327 1 4.142043292041142 12.188051145112068 14.977353409759285 0 0 0
302 1 6.822939628997648 9.429480920850832 14.961245535379916 0 0 0
331 1 8.147168013427702 10.995791860077663 13.671808743730681 0 0 0
310 1 12.288625364741376 9.375758681656913 15.070313723175227 0 0 0
335 1 9.623022928593558 12.113391418352874 15.06802256743252 0 0 0
339 1 13.53795174426106 10.720843037984777 13.611447253404862 0 0 0
343 1 14.914117510705012 12.155639304030075 14.877714688551869 0 0 0
318 1 17.552577938318535 9.545558011021095 14.995626685017372 0 0 0
347 1 19.018075744454396 11.095341491359479 13.702522456882182 0 0 0
351 1 20.64727273268236 12.324756941238178 14.84610058005568 0 0 0
322 1 0.1886821850222631 13.819216862041406 13.353852889648708 0 0 0
326 1 1.498376315279433 15.070352351823049 15.036049242649224 0 0 0
330 1 5.401517375709117 13.55437035552122 13.57143592924426 0 0 0
334 1 6.751700771694555 14.922924873656632 14.877909091392507 0 0 0
338 1 10.917584494157529 13.434891527413859 13.625758422200908 0 0 0
342 1 12.275091336101648 14.818641956882857 14.913090493254293 0 0 0
346 1 16.347942878103947 13.46242257009706 13.680172360049966 0 0 0
350 1 17.752215883827645 14.900572522657598 14.904567881282993 0 0 0
355 1 2.736749227482999 16.477878499702193 13.516959305755966 0 0 0
359 1 4.132324511271044 17.85040244151708 14.947332847449172 0 0 0
363 1 8.173361411999123 16.435346890002904 13.695245366541585 0 0 0
367 1 9.564280853013857 17.664590580321782 15.209111784093455 0 0 0
371 1 13.414066474319192 16.149392950500168 13.448717812391694 0 0 0
375 1 14.946494518682146 17.456475860633113 14.764795563280272 0 0 0
379 1 19.04154077711998 16.366692288200316 13.490207448749661 0 0 0
383 1 20.38075000317626 17.686499409908055 14.687750673433989 0 0 0
354 1 21.685093539823836 19.14540934164794 13.626724819033498 -1 0 0
358 1 1.367757144811418 20.52273051743426 14.997105853272434 0 0 0
362 1 5.531247414618283 19.11501940543897 13.526892378199202 0 0 0
366 1 6.865212005345419 20.407425651000725 14.947278591862943 0 0 0
370 1 10.708317529026855 18.986078710728094 13.786044555204649 0 0 0
374 1 12.229687945458315 20.36770039869315 14.870108357052949 0 0 0
378 1 16.215707560587198 19.026609729809685 13.343508293028584 0 0 0
382 1 17.732375775863545 20.294464277052043 14.749974326948664 0 0 0
385 1 21.73516598488978 21.68360650139404 16.347046056612523 -1 -1 0
388 1 2.7345165597691774 2.699172835809952 16.24342217271457 0 0 0
389 1 1.2072944444926987 1.2462120492169186 17.677391788112363 0 0 0
393 1 5.515206179245553 0.07920997814613606 16.435891542853373 0 0 0
396 1 8.276827160653834 2.669722264609591 16.26374912617658 0 0 0
397 1 6.909476061103914 1.4043716445315888 17.713270363793743 0 0 0
401 1 10.914894035173198 21.723572662171136 16.379844841023917 0 -1 0
405 1 12.094833004401528 1.3258664045204578 17.712861678446018 0 0 0
404 1 13.547382401553078 2.872288004658368 16.251509210069585 0 0 0
409 1 16.343486288942024 21.629440781136005 16.093632798573747 0 -1 0
413 1 17.59994291017603 1.2705007614853943 17.51337113208096 0 0 0
412 1 18.86920440348349 2.701025281288651 16.248416475209073 0 0 0
417 1 21.631690386216786 5.435748898067376 16.20839673458903 -1 0 0
392 1 4.033721058326363 4.087731514400561 17.563950896627894 0 0 0
425 1 5.48999083803625 5.509337057602395 16.24287844234655 0 0 0
400 1 9.482413874264308 4.144505778042521 17.64771980653576 0 0 0
433 1 10.798707500916919 5.5312593372242045 16.36820502620209 0 0 0
408 1 14.990011838985005 3.976450658918661 17.708894126911925 0 0 0
441 1 16.27756232981339 5.465623248936017 16.32773077460974 0 0 0
416 1 20.29267386943167 4.099763155429889 17.481419474849147 0 0 0
420 1 2.6102339504660574 8.259156108992595 16.178612152136512 0 0 0
421 1 1.145711283349375 6.822625075639632 17.568665795747634 0 0 0
428 1 8.212867361970737 8.28796194834668 16.34435938803691 0 0 0
429 1 6.859373899888507 6.946064476374777 17.659521948076083 0 0 0
437 1 12.24786890211028 6.659838183383913 17.817686514891324 0 0 0
436 1 13.56755731762661 8.076875016341608 16.54285240786022 0 0 0
445 1 17.78903549188501 6.762855364355839 17.650247471480174 0 0 0
444 1 18.986766787935654 8.212793837190583 16.290153093971227 0 0 0
449 1 0.06801011307466273 10.922902743398545 16.31203329492099 0 0 0
453 1 1.4183398439532442 12.379951728361592 17.728377341211644 0 0 0
424 1 4.004538099050078 9.479690154124132 17.722215929996835 0 0 0
457 1 5.390775642563456 10.787152565108222 16.375358908007325 0 0 0
461 1 6.74500705393601 12.317430898797502 17.541480787438893 0 0 0
432 1 9.443341277459071 9.716591718083691 17.73608428641397 0 0 0
465 1 10.946380903852797 10.893731173015782 16.422281528184847 0 0 0
469 1 12.23873196128331 12.296921345730063 17.75984972142031 0 0 0
440 1 14.924371961876705 9.566602787850533 17.844386970339603 0 0 0
473 1 16.19117808323936 10.899269544819486 16.472476381010335 0 0 0
477 1 17.902861178381084 12.16657171188634 17.565797329225727 0 0 0
448 1 20.357814448558358 9.606644639918969 17.56242149480661 0 0 0
452 1 2.842947279910099 13.496078201668785 16.241828949195757 0 0 0
456 1 4.005818323890058 14.920601491165367 17.687762451542756 0 0 0
460 1 8.169639426952443 13.617011292264996 16.26365541823839 0 0 0
464 1 9.489776814629028 14.867407450792363 17.61027531663236 0 0 0
468 1 13.6093722693911 13.49059418933677 16.230547931366583 0 0 0
472 1 15.004855933150706 14.886992113980254 17.608175853748122 0 0 0
476 1 19.19733693669315 13.5541672602997 16.102092230042167 0 0 0
480 1 20.344936978216236 14.934251119439974 17.665860211708267 0 0 0
481 1 21.631826514166306 16.28621228587722 16.200721956055236 -1 0 0
485 1 1.2922805966050832 17.564473609950692 17.657620107177078 0 0 0
489 1 5.370230935872565 16.28399399154724 16.20258735376262 0 0 0
493 1 6.752350167429798 17.63149498990584 17.642304296528284 0 0 0
497 1 10.966592496734119 16.199184404228177 16.33384869810579 0 0 0
501 1 12.16142901029317 17.714416147695818 17.627640201053502 0 0 0
505 1 16.309462653930222 16.31786424403866 16.231270572097657 0 0 0
509 1 17.688664036000787 17.806486716901524 17.47117305965908 0 0 0
484 1 2.5956179958956267 18.98899509702576 16.306521847670655 0 0 0
488 1 3.8800619870243707 20.422949871828173 17.502526367133587 0 0 0