LAMMPS data file via write_data, version 29 Aug 2024, timestep = 10000000, units = metal

512 atoms
2 atom types

0 21.74780435 xlo xhi
0 21.74780435 ylo yhi
0 21.74780435 zlo zhi

Masses

1 28.0855
2 12.011

Atoms # atomic

1 1 0.20907766396665062 0.07244077949935525 0.05410383526938742 0 0 0
2 1 0.0005231861113189679 2.6642035702257765 2.806469852254397 0 0 0
3 1 2.8407500687948986 0.07968151477784133 2.95643445131239 0 0 0
4 1 2.6928382817711993 2.626248837142471 21.560796752424753 0 0 -1
5 1 1.456042413569962 1.4141880072123085 1.5363745697480284 0 0 0
9 1 5.442860624694354 0.02224968270451614 0.028613820394871897 0 0 0
10 1 5.390870514595086 2.644754116843182 2.726203426617708 0 0 0
11 2 8.295345292135544 21.70813118919976 2.778925405735122 0 -1 0
12 1 8.192298069647793 2.5171528898172313 0.05925350724308795 0 0 0
13 1 6.824468858180695 1.3311573714135558 1.5551410991601131 0 0 0
17 1 10.92844793719737 21.59175534283301 21.551863192780285 0 -1 -1
18 1 10.80034128377073 2.7036249520968263 2.6849685964317005 0 0 0
21 1 12.171735243464255 1.2532083581737026 1.233808087189117 0 0 0
19 1 13.64936518311228 0.027272022358981855 2.663563966466243 0 0 0
20 1 13.49647817956206 2.7690795194660303 0.04618617858500884 0 0 0
25 1 16.355198151078966 0.09879260165873989 21.726864122575762 0 0 -1
26 1 16.362722628548646 3.0029187671630666 2.6734541580845543 0 0 0
29 1 17.651121940437584 1.401006202901801 1.37933670748145 0 0 0
27 1 19.198805738469936 21.666957883092678 2.7125286358530785 0 -1 0
28 1 19.10428744961306 2.7330565953909485 0.058734954443118645 0 0 0
33 1 21.63748212817193 5.579471326658274 0.008662795017732976 -1 0 0
35 1 2.7066648682799253 5.460695167608958 2.5984529590564476 0 0 0
8 1 4.194884785761445 3.9528625906241057 1.3437456882253525 0 0 0
41 1 5.447387111783588 5.306206127506123 21.739216062954558 0 0 -1
43 1 8.12999784122039 5.44804338167609 2.814152935683333 0 0 0
16 1 9.402616142767402 4.026542583124085 1.5066803170142486 0 0 0
49 1 10.858373356629677 5.350420726585173 0.20712421384077884 0 0 0
24 1 14.891809956996665 4.283958275295484 1.1849221142940563 0 0 0
51 1 13.650041469403986 5.681111411910893 2.675560748024292 0 0 0
57 1 16.479618727774586 5.316097651933718 21.637872446731517 0 0 -1
32 1 20.433735686821446 4.077720391503888 1.3666142270158945 0 0 0
59 1 19.085402905065056 5.406452978625856 2.780190133487171 0 0 0
34 1 0.03593070924092063 8.053691995486473 2.7442259259188657 0 0 0
36 1 2.790726207010555 7.984586881144338 21.669422729197333 0 0 -1
37 1 1.2738155060469893 6.671655510231401 1.3162567205428424 0 0 0
42 1 5.397885463479462 8.110866340732125 2.8571157795204067 0 0 0
44 1 8.24289654028347 8.096134088401726 0.08497214829084407 0 0 0
45 1 6.757213869475231 6.87327166762832 1.3292911507845426 0 0 0
50 1 11.005234635896525 8.020228794317196 2.916409499442023 0 0 0
53 1 12.186854044578034 6.8260098745393005 1.3688645819722112 0 0 0
52 1 13.742155496536272 8.061269862368915 21.594898806288594 0 0 -1
58 1 16.289273615241044 8.13303693436303 2.759305776288535 0 0 0
61 1 17.61682099422223 6.76486933419103 1.5751332750918046 0 0 0
60 1 19.03190436130073 8.178937898421447 0.17005023322731752 0 0 0
65 1 21.73399497974068 10.758536122625667 21.70932543789084 -1 0 -1
67 1 2.9523625802409614 10.887405491007996 2.677622375887539 0 0 0
69 1 1.4428293613441587 12.135469138149976 1.4038435733175911 0 0 0
40 1 4.219317096060304 9.444369522026452 1.2932497382483201 0 0 0
73 1 5.491692358241789 10.772992774683885 21.655916247750874 0 0 -1
75 1 8.190719943409269 10.679157625027539 2.8604884827837567 0 0 0
77 1 6.89599747327128 12.038863338205939 1.4769160972758006 0 0 0
48 1 9.546675896603215 9.360382958788101 1.4893631175260507 0 0 0
81 1 10.85886749902151 10.686856500107773 0.06969820896898353 0 0 0
85 1 12.148153908093233 12.305662667373953 1.4096238429292758 0 0 0
56 1 15.024327866001077 9.43819638801054 1.3772168112138266 0 0 0
83 1 13.581515784550126 10.910064896317389 2.5787506093582913 0 0 0
89 1 16.41721184043165 10.9260471150607 21.685881456388426 0 0 -1
93 1 17.58685549770246 12.334957352526489 1.4157513370552084 0 0 0
64 1 20.444666170488883 9.484980860051486 1.4342567041136944 0 0 0
91 1 19.052962576246582 10.841411965726964 2.6863102641260617 0 0 0
66 1 0.00040821338766958804 13.429800197624905 2.699018321238495 0 0 0
68 1 2.636751998364545 13.488823205853626 0.03249513826638034 0 0 0
72 1 3.9852347263683257 14.95822364882653 1.3375224764814426 0 0 0
74 1 5.466160240317537 13.565632173813643 2.6066978852001332 0 0 0
76 1 8.24643235183915 13.548593504325956 0.2130942238231156 0 0 0
80 1 9.573012198546767 14.978137215982397 1.45056969727447 0 0 0
82 1 10.647691156498716 13.500481136645462 2.8563901857784684 0 0 0
84 1 13.54312288791763 13.586176124428988 21.690889715842022 0 0 -1
88 1 15.011127613084348 14.898029567153422 1.4030799744184912 0 0 0
90 1 16.36269776403945 13.547584294666049 2.7316949542672693 0 0 0
92 1 19.011356873953794 13.624132625210803 21.625050038313507 0 0 -1
96 1 20.38461129847211 14.844915788158968 1.2941090005715812 0 0 0
97 1 21.74097877723532 16.264027920978922 21.643307917518154 -1 0 -1
99 1 2.773609437767904 16.383387756929686 2.7862383182946227 0 0 0
101 1 1.4344652966101987 17.675941223830534 1.307264769991739 0 0 0
105 1 5.400513371300875 16.334824158991097 0.005005193104874253 0 0 0
107 1 8.168880937742536 16.413828393419017 2.718999870615831 0 0 0
109 1 6.794474557471953 17.71614184423504 1.3835922666143976 0 0 0
113 1 10.91115644743583 16.33967977604576 21.701719387936507 0 0 -1
117 1 12.299804361900524 17.683916516124235 1.3994054509073228 0 0 0
115 1 13.622680012601954 16.339766712393594 2.842875028516723 0 0 0
121 1 16.282382112657196 16.503558572413453 0.18282751142141487 0 0 0
125 1 17.818961364880998 17.834944087200096 1.2707766010670958 0 0 0
123 1 19.08436315044355 16.287451205786006 2.6375269575392526 0 0 0
98 1 0.1782937185850621 19.054952578721608 2.6841480173316943 0 0 0
100 1 2.689548170481329 19.130220576043467 21.662083857862825 0 0 -1
104 1 4.120803600851056 20.362602394454942 1.4397780197572547 0 0 0
106 1 5.444890361998804 18.99656862897077 2.8276550933360842 0 0 0
108 1 8.096043094756817 19.18057998102981 0.06225914126374751 0 0 0
112 1 9.607196999255985 20.404067978606847 1.3492066962931983 0 0 0
114 1 10.824781962514848 18.974422862002392 2.700712457294048 0 0 0
116 1 13.528996573449826 19.10400697706258 0.17716638088483683 0 0 0
120 1 15.088339875355544 20.40129087341382 1.2157082276265103 0 0 0
122 1 16.323021223134216 19.022724445116935 2.6865106572735726 0 0 0
124 1 19.152570843051947 19.107081965689236 21.69136983619778 0 0 -1
128 1 20.45323474959747 20.454741783336285 1.2882125359613716 0 0 0
129 1 0.037412542957625555 0.1007455203091953 5.476776579221784 0 0 0
132 1 2.693860476298793 2.6929049199554704 5.566429399437882 0 0 0
7 1 4.12888168267889 1.4681433220532916 4.332244896850551 0 0 0
137 1 5.661680849012555 0.17987547241977225 5.5184730920889695 0 0 0
140 1 8.137206623141873 2.6962135568767196 5.61851115043225 0 0 0
15 1 9.635648130764768 1.31304831905619 4.248022186485474 0 0 0
145 1 10.985383893788526 21.689709504847738 5.476639169211665 0 -1 0
23 1 15.049446513476429 1.5023202115168253 4.055759284315661 0 0 0
148 1 13.542165251881089 2.814573080485901 5.369932669881456 0 0 0
153 1 16.330484229543487 21.696617658156505 5.333908361584705 0 -1 0
31 1 20.308532669475248 1.4479361435382923 4.056005464527382 0 0 0
156 1 19.006264826177578 2.7818344425100947 5.555755028046267 0 0 0
6 1 1.3730531726080553 4.007521066378505 4.000321726013702 0 0 0
161 1 21.67618206207293 5.359494298655157 5.336823577616993 -1 0 0
169 1 5.298677015946731 5.3456180222565 5.433189584473492 0 0 0
14 1 6.739870281657241 4.007113373333664 4.152806970642119 0 0 0
22 1 12.382715382799836 4.19564866963182 4.0118139530283665 0 0 0
177 1 11.01138960168658 5.360265991049223 5.509394632113364 0 0 0
30 1 17.725231697178586 4.161836046583831 4.268613894663869 0 0 0
185 1 16.289133125829274 5.433552750621564 5.334742049016723 0 0 0
164 1 2.696286288897082 8.069493940821612 5.3970491636231 0 0 0
39 1 4.073337378907742 6.679480781421351 4.043453603765189 0 0 0
172 2 8.102180800427039 8.044155237119302 5.529803202516372 0 0 0
47 1 9.515738478280158 6.804558544803751 4.2537339307156605 0 0 0
55 1 14.956472467568737 7.011517430929804 4.131308739265227 0 0 0
180 1 13.505934387112331 8.20750803622993 5.5090301615218875 0 0 0
63 1 20.449971336589556 6.881346351857035 4.014181171878268 0 0 0
188 1 19.022001885280247 8.056246483686746 5.246112691314497 0 0 0
38 1 1.4358207962480531 9.498260894612653 4.053510939754562 0 0 0
193 1 0.151933766263702 10.785654630832957 5.580895474402671 0 0 0
71 1 4.2271046216362835 12.256092408108126 4.110960901156791 0 0 0
201 1 5.460969019964554 10.899201917798077 5.51213623567187 0 0 0
46 1 6.778737653871809 9.449503612151565 4.1808473742064525 0 0 0
54 1 12.162610887207062 9.561227725309317 3.9651253547288117 0 0 0
79 1 9.513569396202977 12.177983942170949 4.1953247358469365 0 0 0
209 1 10.911497722535723 10.810242151638468 5.540395347074079 0 0 0
87 1 14.962694214652348 12.213647202117192 4.104360595387461 0 0 0
62 1 17.58275854099552 9.5490846688114 4.05046814232293 0 0 0
217 1 16.26702813565442 10.787834988145526 5.410787946798905 0 0 0
95 1 20.545258490943056 12.05251325782098 4.15533254151883 0 0 0
70 1 1.42030868244836 14.940119514182227 3.959108634632762 0 0 0
196 1 2.9122173053059455 13.6284688951231 5.471997422593976 0 0 0
78 1 6.820305748564967 14.995470629059655 4.0360565807628594 0 0 0
204 1 8.261297006947698 13.676248704841344 5.454608155196284 0 0 0
86 1 12.14101840786183 14.825050219188025 4.2115142112695825 0 0 0
212 1 13.554875237546073 13.522275507092713 5.555269670158342 0 0 0
94 1 17.673368815869093 14.947142364931453 4.042580986980787 0 0 0
220 1 19.201666554691965 13.581971703205983 5.189181693938652 0 0 0
225 1 0.024137382597521097 16.303260123244605 5.3159392435669055 0 0 0
103 1 4.097134603132656 17.676554974890717 4.010595118763489 0 0 0
233 1 5.463991128326188 16.410670486673908 5.4322384762510385 0 0 0
111 1 9.504603376094423 17.661262715467128 4.134412250941196 0 0 0
241 1 10.875835122904485 16.295454374878126 5.480500413243341 0 0 0
119 1 14.91771629170758 17.702994374366472 4.1753460788977215 0 0 0
249 1 16.491588946676487 16.399562633766028 5.532250721153391 0 0 0
127 1 20.578196795085912 17.64305428945271 3.852151111237665 0 0 0
102 1 1.3235496742112924 20.43812951366616 4.05582872569148 0 0 0
228 1 2.688017900037544 19.056018620771688 5.330521230999266 0 0 0
110 1 6.90580720411796 20.378110393803137 4.234263040933558 0 0 0
236 1 8.142945330053871 19.023642486410527 5.599231396472384 0 0 0
118 1 12.24960027725706 20.424635401184016 4.024651221340851 0 0 0
244 1 13.464504233347956 19.058587488111446 5.396259217629067 0 0 0
126 1 17.64182254084393 20.367537195196142 4.030280187169346 0 0 0
252 1 19.210909604592366 19.125622019189247 5.202080807054776 0 0 0
130 1 21.69949355322608 2.6970958662189815 8.184397062941327 -1 0 0
131 1 2.604117404259234 0.05950053190474311 8.055366244477492 0 0 0
133 1 1.3726394944434712 1.4817656679676972 6.883162956994884 0 0 0
138 1 5.364107490441272 2.8676929984760564 8.173027211909035 0 0 0
139 1 8.22466286862314 21.683226968807027 8.183869877460355 0 -1 0
141 1 6.674655715577019 1.441187350841407 6.9147512232907316 0 0 0
146 1 10.704142281031114 2.7811455161665797 8.174670281995212 0 0 0
149 1 12.215305423819762 1.5215357092019821 6.679367530042706 0 0 0
147 1 13.49916998804722 21.562082015581616 7.976191656844576 0 -1 0
154 1 16.256488244828724 2.6546031472109908 8.23696108501922 0 0 0
157 1 17.652487150034613 1.3577468112229767 6.732796165283218 0 0 0
155 1 19.087916522354284 0.028550148882925962 7.9892206628330396 0 0 0
163 1 2.570842990255849 5.421946396426462 8.329253758881812 0 0 0
136 1 3.881919940861198 4.045639287096681 6.976955138481992 0 0 0
171 1 8.148795389731168 5.452212873191129 8.178495639609718 0 0 0
144 1 9.417026657281744 4.119736837029814 6.76344383972555 0 0 0
152 1 14.965723810992499 4.143545404032664 6.700596602243559 0 0 0
179 1 13.75906968267094 5.462007142643169 8.180770445906342 0 0 0
160 1 20.373765675312967 4.065599096967147 6.800187713625698 0 0 0
187 1 19.09769501025134 5.497879788770726 8.183283011700045 0 0 0
162 1 0.06236176896727517 8.15752729773245 8.168156171113981 0 0 0
165 1 1.314758426154077 6.667898650007245 6.790567820917959 0 0 0
170 1 5.3362597360658794 8.16106250654702 8.165297153076464 0 0 0
173 1 6.617852820667471 6.747935264523917 6.792101060101739 0 0 0
178 1 10.970061837300266 8.235526490860325 8.344214820665531 0 0 0
181 1 12.216023606653694 6.779913529387558 6.846124401563249 0 0 0
186 1 16.242517678196705 8.080189842133118 8.055535300858015 0 0 0
189 1 17.665756878676707 6.734088851463383 6.723873449386927 0 0 0
195 1 2.7065555889608817 10.870617516341742 8.3907042014848 0 0 0
197 1 1.4136457851073008 12.201685565404654 6.8092812760164865 0 0 0
168 1 3.9466342007436017 9.631541998582174 6.756730527815138 0 0 0
203 1 7.9106678415913 10.870633776160183 8.22823771096119 0 0 0
205 1 6.807634424840231 12.420512838666667 6.838860873648708 0 0 0
176 1 9.353860252753732 9.417724907281087 6.957563398476678 0 0 0
213 1 12.254971067671853 12.315843389103444 6.978470126221974 0 0 0
184 1 14.903175991820792 9.452214420362566 6.7514544154142255 0 0 0
211 1 13.658975027800784 10.920549548317936 8.101634385290513 0 0 0
221 1 17.674590316986674 12.282726553841645 6.57282058489475 0 0 0
192 1 20.417808510417622 9.324646996022354 6.762727186867136 0 0 0
219 1 19.007931998801624 10.714394353823286 8.022549094506838 0 0 0
194 1 21.611585253763288 13.53754489713112 8.069607273484529 -1 0 0
200 1 4.017295889655861 15.020348359363169 6.852211551990774 0 0 0
202 1 5.354126474004507 13.686130004587246 8.17668201472245 0 0 0
208 1 9.49611258234777 15.063917069018597 6.8559843023378395 0 0 0
210 1 10.769126945729758 13.549316433334125 8.301802630447883 0 0 0
216 1 14.921427890805782 15.014632905090611 6.7810325954607436 0 0 0
218 1 16.261408005771056 13.56748538674812 8.21358013097639 0 0 0
224 1 20.43074749771316 15.054875429991467 6.614684055355888 0 0 0
227 1 2.6001974590017705 16.305654481219253 8.13549251831966 0 0 0
229 1 1.4062426250965911 17.618652921077313 6.72062657963356 0 0 0
235 1 8.133526909592282 16.276962772467886 8.233598813223214 0 0 0
237 1 6.749145495731257 17.630271102978863 6.9011725884923205 0 0 0
245 1 12.113900036778286 17.606325063241705 6.94162773465699 0 0 0
243 1 13.538407441917125 16.1311185197689 8.251279794540904 0 0 0
253 1 18.026342027759714 17.731718663706676 6.80787528465067 0 0 0
251 1 19.0408693282469 16.23723824984183 8.188808676808934 0 0 0
226 1 21.713014590561098 19.037705042229536 8.315926364670448 -1 0 0
232 1 4.059834416927208 20.49710659346263 6.7221649409261115 0 0 0
234 1 5.331476708262581 19.001934709080647 8.043134904504859 0 0 0
240 1 9.578038415927677 20.2901441834989 6.85851788563935 0 0 0
242 1 10.738776941912382 19.063620855200234 8.383850356075872 0 0 0
248 1 15.05311216965293 20.270509035958266 6.759063448645384 0 0 0
250 1 16.563102345683387 19.060955472929653 7.9954107715008504 0 0 0
256 1 20.473535962494037 20.357145917555364 6.773800085686383 0 0 0
257 1 21.60796031254553 0.009113531428807093 10.878454043966483 -1 0 0
260 1 2.7694899946090157 2.667124444018964 10.860530654930958 0 0 0
261 1 1.4394856362285746 1.3132815018949175 12.205483582631627 0 0 0
135 1 4.163736875424952 1.334086044874761 9.39554246921686 0 0 0
265 1 5.432884756929775 21.730518437387357 10.80904469674081 0 -1 0
268 1 8.158323583538456 2.8090713070613162 10.850829622006016 0 0 0
269 1 6.864463658071353 1.3397432671049836 12.23781018689447 0 0 0
143 1 9.44590101433355 1.48807186588412 9.574238428340658 0 0 0
273 1 10.767523666911046 21.677850605206128 10.88264106949789 0 -1 0
277 1 12.119509031712205 1.329066868773676 12.245683550567938 0 0 0
151 1 14.819966063253437 1.171930896450063 9.404688701508398 0 0 0
276 1 13.506974552440765 2.476723772502819 10.9240408893774 0 0 0
281 1 16.212618967175885 21.57345524918897 10.775772990989566 0 -1 0
285 1 17.68516301562362 1.1884639503497931 12.012600293883427 0 0 0
159 1 20.364534500364524 1.3525118004899523 9.464350305193527 0 0 0
284 1 19.166878023161484 2.708935318883968 10.903681355767032 0 0 0
134 1 1.2681467662922885 4.1790726046183595 9.681465962530558 0 0 0
289 1 21.674734467528296 5.556022302655382 10.998486311768188 -1 0 0
264 1 4.012485867410829 4.09842170760684 12.092393715615644 0 0 0
297 1 5.5362194100000846 5.467756930826645 10.91056187941893 0 0 0
142 1 6.845106786837796 4.1230421692228765 9.441870508879777 0 0 0
150 1 12.38812595059898 4.0207804386750094 9.546345939292673 0 0 0
272 1 9.480809785363464 4.1217810933660415 12.31531331098954 0 0 0
305 1 10.763963073362575 5.425959076310204 10.797134532514669 0 0 0
280 1 14.912864951302188 4.022536223207193 12.267966023254923 0 0 0
158 1 17.70105191866754 4.075106482288725 9.40445787210352 0 0 0
313 1 16.390116706330577 5.504132695619227 10.914349001093244 0 0 0
288 1 20.39343776140723 3.999063846292356 12.279844498617887 0 0 0
292 1 2.535448409787051 8.324652811841327 10.963799101920113 0 0 0
293 1 1.2446443876873914 6.938580310709297 12.262421764330881 0 0 0
167 1 4.002684010684093 7.009232555983091 9.647528239943883 0 0 0
300 1 8.00859659644546 8.364886216077505 10.898086080841049 0 0 0
301 1 6.829700321926386 6.910619665977889 12.202737668781802 0 0 0
175 1 9.348691164223599 6.934728195128165 9.466012672929736 0 0 0
309 1 12.155403188952823 6.602722956817368 11.9807448026483 0 0 0
183 1 14.979233664484152 6.927239246125318 9.477405739228066 0 0 0
308 1 13.53609187086284 8.165599846145703 10.842183817672026 0 0 0
317 1 17.876392550708204 6.940350845822673 12.269965517046957 0 0 0
191 1 20.452821979336754 6.887860855527641 9.600760913492135 0 0 0
316 1 19.004003847525098 8.332204515748565 10.897680361658274 0 0 0
166 1 1.1937237384307804 9.61681002564414 9.616586429175484 0 0 0
321 1 21.675665433779134 10.968018277362406 10.891852774192579 -1 0 0
325 1 1.3282691810168934 12.33497464814334 12.259529311239517 0 0 0
199 1 4.148314621680504 12.130979308091876 9.493675883505606 0 0 0
296 1 3.9938812976674964 9.521644848231206 12.340192260271836 0 0 0
329 1 5.334612754079292 10.899939529599125 11.020846233087509 0 0 0
174 1 6.734117397966949 9.572854534361944 9.502771714536438 0 0 0
333 1 6.759560515264329 12.255001472705874 12.456376976521678 0 0 0
182 1 12.323608063919195 9.575320503096012 9.583628407709327 0 0 0
207 1 9.502447358610214 12.116905175351006 9.586108878268407 0 0 0
304 1 9.496223304462497 9.506936849007554 12.266042790305317 0 0 0
337 1 10.950577922472924 10.967770944028603 10.980436869258643 0 0 0
341 1 12.081123032127499 12.2943057877206 12.339413085556101 0 0 0
215 1 14.905555202621336 12.391712605084786 9.58014671543461 0 0 0
312 1 14.888825288842211 9.451778664799054 12.075802006161089 0 0 0
190 1 17.536300966102473 9.479887318209467 9.48746102583428 0 0 0
345 1 16.275648411551767 11.033922119275122 10.99063800773329 0 0 0
349 1 17.641060794024096 12.298828131810161 12.391082917803013 0 0 0
223 1 20.176543411838793 12.274437122610172 9.336268223254176 0 0 0
320 1 20.38358706490206 9.580462246988038 12.409969375289087 0 0 0
198 1 1.2524740528674205 14.859082031663378 9.465370481505683 0 0 0
324 1 2.7104813352930552 13.538182164036684 10.76442201317887 0 0 0
328 1 3.8812493325611834 14.921444981868568 12.232187505787007 0 0 0
206 1 6.847251981606754 14.932297006451423 9.62029242993829 0 0 0
332 1 8.145687685969289 13.638444389575424 10.93213591636892 0 0 0
214 1 12.087913906304685 14.8595970486017 9.80835107721547 0 0 0
336 1 9.477906060728813 15.0064962514316 12.239416379011749 0 0 0
340 1 13.576346868700861 13.530517879556744 11.10268820707729 0 0 0
344 1 15.029215699154038 14.898375899390189 12.359746354776421 0 0 0
222 1 17.543838897230835 14.899121243550027 9.59332643017835 0 0 0
348 1 18.934742137108927 13.546752406459962 10.907697876846276 0 0 0
352 1 20.31841725908811 15.013207273399212 12.078412825991062 0 0 0
353 1 0.03606662685221075 16.35863144423151 10.858657891765034 0 0 0
357 1 1.2921272405874764 17.780556982014332 12.256790778042829 0 0 0
231 1 3.907515369354696 17.662765520099196 9.575981145675916 0 0 0
361 1 5.265747176445023 16.234171870236203 10.84818590507761 0 0 0
365 1 6.698422708126863 17.520406523612117 12.235074821531255 0 0 0
239 1 9.379929441668967 17.624389598102532 9.613061105278778 0 0 0
369 1 10.688481874080814 16.401637435223197 10.911190943868668 0 0 0
373 1 12.235324817944093 17.728840705602266 12.245547506195495 0 0 0
247 1 15.057836880950541 17.6577234332665 9.364486245475577 0 0 0
377 1 16.167292025199735 16.30280946319872 10.893233414871426 0 0 0
381 1 17.667115013051905 17.65671352986382 12.043491435194492 0 0 0
255 1 20.45005771501262 17.565092635365904 9.464510679004215 0 0 0
230 1 1.3417711101553502 20.547656255526185 9.52144160507846 0 0 0
356 1 2.5216339117348747 19.077879123235327 10.878862644830054 0 0 0
360 1 3.9162489419786817 20.437281677028484 12.097828094453332 0 0 0
238 1 6.812298419892078 20.343027605262048 9.398851581716311 0 0 0
364 1 7.999388564029935 19.05394565517567 10.964292734209668 0 0 0
246 1 12.134660450801578 20.38453192469466 9.62314612193141 0 0 0
368 1 9.475289012639886 20.36763500572808 12.191325036890726 0 0 0
372 1 13.598444826745432 18.91615858618598 10.742995520194457 0 0 0
376 1 14.792433673648937 20.265315002216667 12.081593453351113 0 0 0
254 1 17.718682817941367 20.461827851473775 9.391612593991004 0 0 0
380 1 19.14817353008413 18.965147239518114 10.747578774022704 0 0 0
384 1 20.29475441347826 20.342472302265566 12.147646801471474 0 0 0
258 1 0.013558081787251763 2.6583639888141963 13.637799518600835 0 0 0
259 1 2.874093167327839 0.2816346153664002 13.579774071100701 0 0 0
263 1 4.1702305783247615 1.483383430219609 14.940223061816146 0 0 0
266 1 5.440431953683138 2.747890741806017 13.372052983986869 0 0 0
267 1 8.230580498974478 21.735301655346653 13.584911449979364 0 -1 0
271 1 9.507682012849589 1.3332270785239397 14.8964347791182 0 0 0
274 1 10.853759080563222 2.633431483258185 13.600064839604848 0 0 0
275 1 13.584572920795601 0.013332536722660531 13.673867425654649 0 0 0
279 1 14.94205281207025 1.3016243346282095 15.03360752338287 0 0 0
282 1 16.296616234415634 2.46916116983661 13.540592793113179 0 0 0
283 1 19.068101019066603 21.637325488392662 13.532658372788179 0 -1 0
287 1 20.259135200021362 1.3702702226307448 14.852988038275893 0 0 0
262 1 1.344256315452811 4.12140587663839 14.989538341828336 0 0 0
291 1 2.6430619749060873 5.54153424740667 13.58926371107177 0 0 0
270 1 6.892933029487845 4.181496710699852 14.837888017101898 0 0 0
299 1 8.257944617006972 5.6598059891227255 13.601881153362442 0 0 0
278 1 12.157338427522783 4.065898167420542 14.952766432337036 0 0 0
307 1 13.440128166777036 5.312131721750875 13.531123354872477 0 0 0
286 1 17.60617056217807 3.949585372774104 15.038935801770005 0 0 0
315 1 18.93603990145251 5.315679128305258 13.697096651472844 0 0 0
290 1 0.04438268262454361 8.195429332250619 13.730814483808997 0 0 0
295 1 4.204762475559149 6.821529120559218 14.892328543145766 0 0 0
298 1 5.491035548051069 8.227078000574812 13.531711348425162 0 0 0
303 1 9.582367369382121 6.840646276922167 15.022375468025851 0 0 0
306 1 11.01949929394948 8.149952661803777 13.377034574947428 0 0 0
311 1 14.959372503519528 6.6337035242279185 14.778211490472822 0 0 0
314 1 16.2948366490247 8.13080447288308 13.499747823228999 0 0 0
319 1 20.41584593336396 6.725107691255692 15.002952449546143 0 0 0
294 1 1.3322376760382182 9.58730184125881 15.20959862505519 0 0 0
323 1 2.621696489251752 10.925593988653374 13.610180052460395 0 0 0
327 1 3.99441060783266 12.3123902568706 14.996545220938277 0 0 0
302 1 6.781400561939068 9.574600225896702 15.053139361583673 0 0 0
331 1 8.387518791962322 10.792578351885407 13.656043006738562 0 0 0
310 1 12.347279084941201 9.414863868607553 14.895657184042479 0 0 0
335 1 9.608903640021465 12.307996890769937 15.194672676826338 0 0 0
339 1 13.574555555228196 10.719759381799102 13.442633521358488 0 0 0
343 1 14.884282832731836 12.137215519860499 14.71604114566977 0 0 0
318 1 17.5664633193801 9.420101479605995 14.953434641829446 0 0 0
347 1 18.864261652898904 10.930648786299663 13.766796098499155 0 0 0
351 1 20.3238385856208 12.278316711477686 14.96155378148057 0 0 0
322 1 21.630158891623395 13.550542621385125 13.653012454175304 -1 0 0
326 1 1.3264268768781569 14.928591450118386 14.928546971594482 0 0 0
330 1 5.333006953920323 13.70522080078133 13.68771136617324 0 0 0
334 1 6.733808472035744 15.028836007126365 14.992923068913607 0 0 0
338 1 10.769450665919498 13.752396414330912 13.722955833517007 0 0 0
342 1 12.248340132849362 15.121687373638627 14.977225413641916 0 0 0
346 1 16.374490920934953 13.537747944802677 13.734835409960326 0 0 0
350 1 17.766634576273663 14.934140992174214 14.911676014923222 0 0 0
355 1 2.6076266238081094 16.37695942748105 13.537538599428878 0 0 0
359 1 4.091871256129636 17.647622946929 14.861340938073488 0 0 0
363 1 8.061707997730522 16.22947251809838 13.494063451569188 0 0 0
367 1 9.455704966199047 17.577626812710633 14.818473606050391 0 0 0
371 1 13.662061037742127 16.344070408415828 13.558762736084939 0 0 0
375 1 14.997425424505852 17.835210618281316 14.904097048371275 0 0 0
379 1 19.06649378900837 16.399802123253316 13.583871285043827 0 0 0
383 1 20.475037829764457 17.796255798441702 14.924699586792064 0 0 0
354 1 21.68015698881773 19.236823925249666 13.560266404448738 -1 0 0
358 1 1.5036525557443354 20.49693699869585 14.924743797382916 0 0 0
362 1 5.373038281730718 19.018781809448715 13.424921998078906 0 0 0
366 1 6.849268795874003 20.396916572221095 14.934305583908444 0 0 0
370 1 10.864218250119716 18.955803589941887 13.578106951290739 0 0 0
374 1 12.294899371747242 20.269616256835075 14.967732520709925 0 0 0
378 1 16.17051218007119 18.96740725214858 13.307906074338097 0 0 0
382 1 17.535719138317567 20.365691577169947 14.748476610564145 0 0 0
385 1 0.08294993252245256 0.12374404645012496 16.1879586282081 0 0 0
388 1 2.8284545197283193 2.736041835794862 16.476342819916095 0 0 0
389 1 1.2494446930377858 1.4419849561438853 17.68011250552707 0 0 0
393 1 5.4308117955959485 21.587976499554706 16.384960780829207 0 -1 0
396 1 8.202324200707201 2.8251691674411736 16.175270889019757 0 0 0
397 1 6.82983079188059 1.4466089610963295 17.465573949110166 0 0 0
401 1 10.87819663091699 21.642800055682933 16.357075630499203 0 -1 0
405 2 12.269808511124795 1.3126954956307157 17.820052777294162 0 0 0
404 1 13.49957742772341 2.7396303183403643 16.41719521942628 0 0 0
409 1 16.310372001034366 0.028646142439330485 16.25022381979089 0 0 0
413 1 17.684924786850274 1.428765639073605 17.624402036445638 0 0 0
412 1 19.018168865697067 2.704360096372373 16.255110102790546 0 0 0
417 1 0.2523412390659801 5.539869275674739 16.31497714010121 0 0 0
392 1 4.1098376133072705 4.11980879903938 17.81612407076118 0 0 0
425 1 5.569683956437351 5.273042307811239 16.30285925752379 0 0 0
400 1 9.523530264592887 4.137247980572571 17.73014064180992 0 0 0
433 2 10.874379209668636 5.40108978956672 16.389716736579476 0 0 0
408 1 14.942179034132128 4.0911907909770315 17.601985601083516 0 0 0
441 1 16.23096607712113 5.414305971314217 16.183931115792795 0 0 0
416 1 20.568339045261798 4.014299906595305 17.539863500163474 0 0 0
420 1 2.781774325996728 8.233741235091896 16.38619551013023 0 0 0
421 1 1.4911357560335041 6.939231876263527 17.720895205991447 0 0 0
428 1 8.091351873728323 8.209308774115383 16.354954043991015 0 0 0
429 1 6.845085181251943 6.610797590290073 17.783992737657343 0 0 0
437 1 12.253340372431454 6.878528492962826 17.716592614454854 0 0 0
436 1 13.715818131141258 7.895772929110644 16.187095865097362 0 0 0
445 1 17.68530528047859 6.631292660837669 17.55230999300574 0 0 0
444 1 19.068331987687184 8.024507717167833 16.26433992969299 0 0 0
449 1 21.720651047135508 11.01843149504117 16.426587932236483 -1 0 0
453 1 1.4577718348179372 12.516130465089566 17.694620118956134 0 0 0
424 1 4.055110680101806 9.518972610008388 17.632867583509732 0 0 0
457 1 5.349881142013619 11.002313744532717 16.35500263535588 0 0 0
461 1 6.752325527979819 12.212382694258768 17.726032447474758 0 0 0
432 1 9.587061013147975 9.624931271197722 17.633185502875385 0 0 0
465 1 11.013002206031018 10.879276241614606 16.23769827582354 0 0 0
469 1 12.370195735126002 12.251885401504815 17.66072240715575 0 0 0
440 1 14.841514863058382 9.404246106733734 17.72941477708495 0 0 0
473 1 16.117869971498504 10.801354936855498 16.240238794008455 0 0 0
477 1 17.543013034688958 12.198959805665766 17.626079001299345 0 0 0
448 1 20.534140137260795 9.395510839926377 17.48462004644771 0 0 0
452 1 2.85118217710981 13.700822963748523 16.310154942099803 0 0 0
456 1 4.160135567508811 15.042731909330268 17.64912206104112 0 0 0
460 1 8.108583194977177 13.923177175972059 16.5571970009086 0 0 0
464 1 9.600797020750568 15.123102772325915 17.915359653319225 0 0 0
468 1 13.619945638058285 13.4803326522916 16.129409457464412 0 0 0
472 1 14.934236465538541 14.914410089867147 17.56236665552615 0 0 0
476 1 19.04655881697615 13.577628931625247 16.31982567906123 0 0 0
480 1 20.320200355102845 14.866694915631644 17.816858799863002 0 0 0
481 1 21.67169571114984 16.30947311122994 16.317257196598813 -1 0 0
485 1 1.358635437143243 17.750438556977965 17.46854420006947 0 0 0
489 1 5.477454465661952 16.432214041889907 16.314378329492357 0 0 0
493 1 6.7648465605264505 17.546914094075834 17.741361962045072 0 0 0
497 1 11.00950976727502 16.30075668188551 16.32122674531153 0 0 0
501 1 12.373400037161645 17.58551155821795 17.588360221526635 0 0 0
505 1 16.250488711542168 16.37893184347664 16.226343324963537 0 0 0
509 1 17.49267651359989 17.85250514411901 17.652297235838944 0 0 0
484 1 2.7412548787192446 19.020246608836874 16.133813367804148 0 0 0